/*--------------------------------*- C++ -*----------------------------------*\
| =========                 |                                                 |
| \\      /  F ield         | OpenFOAM: The Open Source CFD Toolbox           |
|  \\    /   O peration     | Version:  v1912                                 |
|   \\  /    A nd           | Website:  www.openfoam.com                      |
|    \\/     M anipulation  |                                                 |
\*---------------------------------------------------------------------------*/
FoamFile
{
    version     2.0;
    format      ascii;
    class       volScalarField;
    location    "0.7";
    object      alphat.gas;
}
// * * * * * * * * * * * * * * * * * * * * * * * * * * * * * * * * * * * * * //

dimensions      [1 -1 -1 0 0 0 0];


internalField   nonuniform List<scalar> 
4800
(
2.569694559e-08
5.142893494e-08
7.050465592e-08
8.655870465e-08
1.008892658e-07
1.14141729e-07
1.267136152e-07
1.388824655e-07
1.508597079e-07
1.628172655e-07
1.749021644e-07
1.872452308e-07
1.999666332e-07
2.131796362e-07
2.269933072e-07
2.41514603e-07
2.56850103e-07
2.73107566e-07
2.903974445e-07
3.088344601e-07
3.285393385e-07
3.496407995e-07
3.722779097e-07
3.966029288e-07
4.227848166e-07
4.510136159e-07
4.815060442e-07
5.145127545e-07
5.503280253e-07
5.893022482e-07
6.318646592e-07
6.78524004e-07
7.300100357e-07
7.872325321e-07
8.490301681e-07
9.348834682e-07
9.609343398e-07
1.206385591e-06
9.92262174e-07
1.800336136e-06
4.106086039e-08
8.340288033e-08
1.15205841e-07
1.419499271e-07
1.65556055e-07
1.86948992e-07
2.066672765e-07
2.250589709e-07
2.423650423e-07
2.587608145e-07
2.743787661e-07
2.893220432e-07
3.036729468e-07
3.174985214e-07
3.308543802e-07
3.437874138e-07
3.563377667e-07
3.685403201e-07
3.804258349e-07
3.920218559e-07
4.033534497e-07
4.144438245e-07
4.253148698e-07
4.359876468e-07
4.46482851e-07
4.56821271e-07
4.670242661e-07
4.771142598e-07
4.871154467e-07
4.970527411e-07
5.069667795e-07
5.168051634e-07
5.271111721e-07
5.353808978e-07
5.520013999e-07
5.408516445e-07
6.112257737e-07
4.33831796e-07
7.853927496e-07
2.744692674e-06
3.999620713e-08
8.119689945e-08
1.121335399e-07
1.381494547e-07
1.611169854e-07
1.819363066e-07
2.011310685e-07
2.190394031e-07
2.358951919e-07
2.518684456e-07
2.670874878e-07
2.816520853e-07
2.956416817e-07
3.091208035e-07
3.221427464e-07
3.347521696e-07
3.469869721e-07
3.588796821e-07
3.704585082e-07
3.817481507e-07
3.927704411e-07
4.03544855e-07
4.140889357e-07
4.244186523e-07
4.345487175e-07
4.44492882e-07
4.5426423e-07
4.638754931e-07
4.733394909e-07
4.826689575e-07
4.918832483e-07
5.009607557e-07
5.101839696e-07
5.180091481e-07
5.326588006e-07
5.16318209e-07
6.156485152e-07
2.536748155e-07
7.764525782e-07
3.164038944e-06
4.007059526e-08
8.135839191e-08
1.123620856e-07
1.384343158e-07
1.614510929e-07
1.823145277e-07
2.015494779e-07
2.194948933e-07
2.363852421e-07
2.523909722e-07
2.67640743e-07
2.82234585e-07
2.96252154e-07
3.097581509e-07
3.228060182e-07
3.354405425e-07
3.476997377e-07
3.596162399e-07
3.71218364e-07
3.8253092e-07
3.935758568e-07
4.043727799e-07
4.149393793e-07
4.25291792e-07
4.354449239e-07
4.45412747e-07
4.552085942e-07
4.648454733e-07
4.743364408e-07
4.836949617e-07
4.929358715e-07
5.020743886e-07
5.111415186e-07
5.199880689e-07
5.304743267e-07
5.282941956e-07
5.987849136e-07
2.581434243e-07
7.292313861e-07
3.480963431e-06
4.005699962e-08
8.132935609e-08
1.123210996e-07
1.383832228e-07
1.613910957e-07
1.822465024e-07
2.014741061e-07
2.194127259e-07
2.36296738e-07
2.522965204e-07
2.675406769e-07
2.821291919e-07
2.961416801e-07
3.096428047e-07
3.226859713e-07
3.353159289e-07
3.475706515e-07
3.594827315e-07
3.710804347e-07
3.823885145e-07
3.934288531e-07
4.042209761e-07
4.147824751e-07
4.251293632e-07
4.352763863e-07
4.452373032e-07
4.550251529e-07
4.64652529e-07
4.741318408e-07
4.834759453e-07
4.926957632e-07
5.018200237e-07
5.107904801e-07
5.198302841e-07
5.293880816e-07
5.297068236e-07
5.934327537e-07
9.673291018e-08
1.182189702e-06
3.765595586e-06
4.00503395e-08
8.131613464e-08
1.123028867e-07
1.38360796e-07
1.613649464e-07
1.822169919e-07
2.014415258e-07
2.193773226e-07
2.362587275e-07
2.522560946e-07
2.674980071e-07
2.820844303e-07
2.9609496e-07
3.095942385e-07
3.226356488e-07
3.352639143e-07
3.475169797e-07
3.594274036e-07
3.710234126e-07
3.823297142e-07
3.933681362e-07
4.041581391e-07
4.147172341e-07
4.25061334e-07
4.352050537e-07
4.451619798e-07
4.549449129e-07
4.645661103e-07
4.740374835e-07
4.83371254e-07
4.925764283e-07
5.016867081e-07
5.105981303e-07
5.197614844e-07
5.285572147e-07
5.328873723e-07
5.649282865e-07
4.817967322e-07
8.57571884e-07
4.013817703e-06
4.004309742e-08
8.130157199e-08
1.122826862e-07
1.383358278e-07
1.613357613e-07
1.821839963e-07
2.014050476e-07
2.193376395e-07
2.362160812e-07
2.522106994e-07
2.674500532e-07
2.820340857e-07
2.960423697e-07
3.095395231e-07
3.225789018e-07
3.352051985e-07
3.474563227e-07
3.593647924e-07
3.70958787e-07
3.822629593e-07
3.932990724e-07
4.040865098e-07
4.146426898e-07
4.249834102e-07
4.351231408e-07
4.450752816e-07
4.548523866e-07
4.644663759e-07
4.739287202e-07
4.832508244e-07
4.924416971e-07
5.015334168e-07
5.103742999e-07
5.199556192e-07
5.26054984e-07
5.391785418e-07
5.677164708e-07
2.491521593e-07
1.416046292e-06
4.240809129e-06
4.003588179e-08
8.12871342e-08
1.12262657e-07
1.383110711e-07
1.613068211e-07
1.821512754e-07
2.013688742e-07
2.192982937e-07
2.361738096e-07
2.521657214e-07
2.674025653e-07
2.819842614e-07
2.959903588e-07
3.094854496e-07
3.2252286e-07
3.351472493e-07
3.473964879e-07
3.593030487e-07
3.70895059e-07
3.821971111e-07
3.932308975e-07
4.040157188e-07
4.145688947e-07
4.249061043e-07
4.350416717e-07
4.449888141e-07
4.547598566e-07
4.643664194e-07
4.73819584e-07
4.831302526e-07
4.923064302e-07
5.013864663e-07
5.10129028e-07
5.203699622e-07
5.215446379e-07
5.605948163e-07
4.674856704e-07
8.374013032e-07
2.578421567e-06
4.487181706e-06
4.002863779e-08
8.127268823e-08
1.122426001e-07
1.382862709e-07
1.612778212e-07
1.821184804e-07
2.013326164e-07
2.192588594e-07
2.361314523e-07
2.521206692e-07
2.673550227e-07
2.819344103e-07
2.959383562e-07
3.09431425e-07
3.224669115e-07
3.350894379e-07
3.473368322e-07
3.59241518e-07
3.708315658e-07
3.821315019e-07
3.931629433e-07
4.039451026e-07
4.144951973e-07
4.248287865e-07
4.349600516e-07
4.449020365e-07
4.546668585e-07
4.642658841e-07
4.737098222e-07
4.830098205e-07
4.921672649e-07
5.012731208e-07
5.096925001e-07
5.217124429e-07
5.140064058e-07
5.836422172e-07
4.037449286e-07
3.920780831e-07
3.182541711e-06
4.739286404e-06
4.002136699e-08
8.125824479e-08
1.122225317e-07
1.382614488e-07
1.612487888e-07
1.820856442e-07
2.012963134e-07
2.192193827e-07
2.360890642e-07
2.520756069e-07
2.673075012e-07
2.818846211e-07
2.95886466e-07
3.093775713e-07
3.224111982e-07
3.350319296e-07
3.472775475e-07
3.591804225e-07
3.707685637e-07
3.820664273e-07
3.930955501e-07
4.038750534e-07
4.144220504e-07
4.247519809e-07
4.348788899e-07
4.448156617e-07
4.545742262e-07
4.641657387e-07
4.736006204e-07
4.828902709e-07
4.920298187e-07
5.011670675e-07
5.09208682e-07
5.23299971e-07
5.076096549e-07
5.826655754e-07
4.530269376e-07
8.672453958e-07
3.731781615e-06
4.99375271e-06
4.001406669e-08
8.12438036e-08
1.1220245e-07
1.382366028e-07
1.612197223e-07
1.820527663e-07
2.012599668e-07
2.191798686e-07
2.360466545e-07
2.520305503e-07
2.672600243e-07
2.81834928e-07
2.958347349e-07
3.093239506e-07
3.223558007e-07
3.349748264e-07
3.472187607e-07
3.591199174e-07
3.707062404e-07
3.820021118e-07
3.930289843e-07
4.038058852e-07
4.143498222e-07
4.246761178e-07
4.347986879e-07
4.447302697e-07
4.544826262e-07
4.640667418e-07
4.73492826e-07
4.82772325e-07
4.918981774e-07
5.010263134e-07
5.090829262e-07
5.225574696e-07
5.104851317e-07
5.850903517e-07
3.393286893e-07
1.491671874e-06
4.14678635e-06
5.247395216e-06
4.000673515e-08
8.122936746e-08
1.121823573e-07
1.382117359e-07
1.611906254e-07
1.820198521e-07
2.012235845e-07
2.191403288e-07
2.360042406e-07
2.519855239e-07
2.672126265e-07
2.817853771e-07
2.957832238e-07
3.092706412e-07
3.22300818e-07
3.349182513e-07
3.471606225e-07
3.590601852e-07
3.706448142e-07
3.819388133e-07
3.929635482e-07
4.037379491e-07
4.142789178e-07
4.24601662e-07
4.347199734e-07
4.446464537e-07
4.543927227e-07
4.639696215e-07
4.733872305e-07
4.826565822e-07
4.917739864e-07
5.00852217e-07
5.092230466e-07
5.205515842e-07
5.177055368e-07
5.65771942e-07
5.519271709e-07
7.911521533e-07
4.555667019e-06
5.50174164e-06
3.999937115e-08
8.121494094e-08
1.121622573e-07
1.381868525e-07
1.611615038e-07
1.819869088e-07
2.011871767e-07
2.191007777e-07
2.359618428e-07
2.519405562e-07
2.671653461e-07
2.817360201e-07
2.957320003e-07
3.0921773e-07
3.222463596e-07
3.348623405e-07
3.471032994e-07
3.590014265e-07
3.705845237e-07
3.818768131e-07
3.928995691e-07
4.036716224e-07
4.14209768e-07
4.245291012e-07
4.3464329e-07
4.445648133e-07
4.543051706e-07
4.638750771e-07
4.732845314e-07
4.825438498e-07
4.916557581e-07
5.006729267e-07
5.093729793e-07
5.187951906e-07
5.238653071e-07
5.609748564e-07
6.511170606e-07
1.2391639e-06
4.939377628e-06
5.756047427e-06
3.999197403e-08
8.120053064e-08
1.121421561e-07
1.381619596e-07
1.611323655e-07
1.819539464e-07
2.011507563e-07
2.190612327e-07
2.35919485e-07
2.518956795e-07
2.671182271e-07
2.816869148e-07
2.956811396e-07
3.091653133e-07
3.221925471e-07
3.348072444e-07
3.47046975e-07
3.589438621e-07
3.705256315e-07
3.818164187e-07
3.928374033e-07
4.036073132e-07
4.141428354e-07
4.244589507e-07
4.345692057e-07
4.444859671e-07
4.542206279e-07
4.637837902e-07
4.731853639e-07
4.824353128e-07
4.915392519e-07
5.005240023e-07
5.093597789e-07
5.17888591e-07
5.268665236e-07
5.476172079e-07
6.505577054e-07
1.590060231e-06
5.300526571e-06
6.010610193e-06
3.99845438e-08
8.118614539e-08
1.12122062e-07
1.381370664e-07
1.611032209e-07
1.819209774e-07
2.011143389e-07
2.190217143e-07
2.358771943e-07
2.518509304e-07
2.67071318e-07
2.816381254e-07
2.956307253e-07
3.091134977e-07
3.221395142e-07
3.347531285e-07
3.46991851e-07
3.588877349e-07
3.704684252e-07
3.81757967e-07
3.927774402e-07
4.035454657e-07
4.140786193e-07
4.243917611e-07
4.344983241e-07
4.444105659e-07
4.541397751e-07
4.636964522e-07
4.730904696e-07
4.823312684e-07
4.914293401e-07
5.003697134e-07
5.094233554e-07
5.166103975e-07
5.316812289e-07
5.393059908e-07
6.788551947e-08
1.893201034e-06
5.642552839e-06
6.26654991e-06
3.997708117e-08
8.117179634e-08
1.121019853e-07
1.381121847e-07
1.610740834e-07
1.818880171e-07
2.010779431e-07
2.189822461e-07
2.358350018e-07
2.5180635e-07
2.670246732e-07
2.81589723e-07
2.95580849e-07
3.090624003e-07
3.220874079e-07
3.347001749e-07
3.469381495e-07
3.588333115e-07
3.704132212e-07
3.817018281e-07
3.927201071e-07
4.034865671e-07
4.140176635e-07
4.243281329e-07
4.344312986e-07
4.44339309e-07
4.540633467e-07
4.636138258e-07
4.730005865e-07
4.822328146e-07
4.913228018e-07
5.00243916e-07
5.093357423e-07
5.161390577e-07
5.349850682e-07
4.95782886e-07
6.166861821e-07
2.223175418e-06
5.967140618e-06
6.52502885e-06
3.996958763e-08
8.115749731e-08
1.120819395e-07
1.380873291e-07
1.610449689e-07
1.818550838e-07
2.010415909e-07
2.189428553e-07
2.357929425e-07
2.51761984e-07
2.669783527e-07
2.81541786e-07
2.95531612e-07
3.0901215e-07
3.220363903e-07
3.34648584e-07
3.468861149e-07
3.587808862e-07
3.703603685e-07
3.816484107e-07
3.926658762e-07
4.034311541e-07
4.139605687e-07
4.242687338e-07
4.343688534e-07
4.442729656e-07
4.53992153e-07
4.635367463e-07
4.729165718e-07
4.821403855e-07
4.912249151e-07
5.00104436e-07
5.093957164e-07
5.151033952e-07
5.382100731e-07
4.789930334e-07
7.284074699e-07
6.761494636e-07
6.283871977e-06
6.785765681e-06
3.996206555e-08
8.114326499e-08
1.120619406e-07
1.380625174e-07
1.61015897e-07
1.818221993e-07
2.010053077e-07
2.189035733e-07
2.357510559e-07
2.517178835e-07
2.66932423e-07
2.814944006e-07
2.954831257e-07
3.089628887e-07
3.219866397e-07
3.345985769e-07
3.468360177e-07
3.587307847e-07
3.703102544e-07
3.815981681e-07
3.926152709e-07
4.033798209e-07
4.13908007e-07
4.242143119e-07
4.343118049e-07
4.442124038e-07
4.539271013e-07
4.634661476e-07
4.728393874e-07
4.820546755e-07
4.911386188e-07
4.999336846e-07
5.097700887e-07
5.121557834e-07
5.493874155e-07
4.358291532e-07
8.187327238e-07
1.085831738e-06
6.602485885e-06
7.048002258e-06
3.995451827e-08
8.112911931e-08
1.120420082e-07
1.380377709e-07
1.609868907e-07
1.817893891e-07
2.009691231e-07
2.188644357e-07
2.357093867e-07
2.516741056e-07
2.668869579e-07
2.814476626e-07
2.954355132e-07
3.089147731e-07
3.219383533e-07
3.345503986e-07
3.467881578e-07
3.586833692e-07
3.7026331e-07
3.815516071e-07
3.925688768e-07
4.033332371e-07
4.138607355e-07
4.241657076e-07
4.342610763e-07
4.441586231e-07
4.538692372e-07
4.634031052e-07
4.727700718e-07
4.819773494e-07
4.910587924e-07
4.997882053e-07
5.100338828e-07
5.100028588e-07
5.554891884e-07
4.394890846e-07
6.970573739e-07
1.396040563e-06
6.91232979e-06
7.312141365e-06
3.994695027e-08
8.111508378e-08
1.120221655e-07
1.380131151e-07
1.609579773e-07
1.817566833e-07
2.009330714e-07
2.188254834e-07
2.356679852e-07
2.516307141e-07
2.668420398e-07
2.814016783e-07
2.953889108e-07
3.088679771e-07
3.218917501e-07
3.345043213e-07
3.467428694e-07
3.586390447e-07
3.702200191e-07
3.81509297e-07
3.925273563e-07
4.032921653e-07
4.138196153e-07
4.241238784e-07
4.342177184e-07
4.441127683e-07
4.53819786e-07
4.633488806e-07
4.727098989e-07
4.819097503e-07
4.909856021e-07
4.996808077e-07
5.101111811e-07
5.087522552e-07
5.608745661e-07
4.082467921e-07
8.105304242e-07
1.731384133e-06
7.213573913e-06
7.578637514e-06
3.99393673e-08
8.110118586e-08
1.120024398e-07
1.3798858e-07
1.609291893e-07
1.817241172e-07
2.008971924e-07
2.187867633e-07
2.356269093e-07
2.515877817e-07
2.667977609e-07
2.81356566e-07
2.953434706e-07
3.088226943e-07
3.218470744e-07
3.344606497e-07
3.467005273e-07
3.585982662e-07
3.701809268e-07
3.814718826e-07
3.924914627e-07
4.03257474e-07
4.13785633e-07
4.240899306e-07
4.34182952e-07
4.440761638e-07
4.537801762e-07
4.633049809e-07
4.726604204e-07
4.818531199e-07
4.909236859e-07
4.99585699e-07
5.101663493e-07
5.080400599e-07
5.609456308e-07
4.309443453e-07
1.006985638e-06
2.065746712e-06
7.506809468e-06
7.847815043e-06
3.993177654e-08
8.108745749e-08
1.119828633e-07
1.379642009e-07
1.609005647e-07
1.816917322e-07
2.008615327e-07
2.187483298e-07
2.355862247e-07
2.515453908e-07
2.667542259e-07
2.813124593e-07
2.952993634e-07
3.08779142e-07
3.218046005e-07
3.34419726e-07
3.466615537e-07
3.58561548e-07
3.701466517e-07
3.814400984e-07
3.924620579e-07
4.032301599e-07
4.137599274e-07
4.240651485e-07
4.341582051e-07
4.440503709e-07
4.537520867e-07
4.63273202e-07
4.726234909e-07
4.818094497e-07
4.908736271e-07
4.995134763e-07
5.101733567e-07
5.075050651e-07
5.636385572e-07
4.042188178e-07
9.100592348e-07
2.423049662e-06
7.790843952e-06
8.119394402e-06
3.992418684e-08
8.107393561e-08
1.119634737e-07
1.379400196e-07
1.608721486e-07
1.816595775e-07
2.008261469e-07
2.187102462e-07
2.355460075e-07
2.515036354e-07
2.667115541e-07
2.812695102e-07
2.952567825e-07
3.087375659e-07
3.217646381e-07
3.343819377e-07
3.466264274e-07
3.585294748e-07
3.701178992e-07
3.814147859e-07
3.924401327e-07
4.032113748e-07
4.137438207e-07
4.24051031e-07
4.341451553e-07
4.44037241e-07
4.537375241e-07
4.632556869e-07
4.726013759e-07
4.817811187e-07
4.90836968e-07
4.99474143e-07
5.10055866e-07
5.079599445e-07
5.606580258e-07
4.502187424e-07
1.61951266e-07
2.775829678e-06
8.064840989e-06
8.393579866e-06
3.991660897e-08
8.106066279e-08
1.119443153e-07
1.379160852e-07
1.608439941e-07
1.816277109e-07
2.007911e-07
2.186725872e-07
2.355063467e-07
2.514626246e-07
2.666698818e-07
2.812278924e-07
2.952159496e-07
3.086982467e-07
3.217275407e-07
3.343477258e-07
3.465956939e-07
3.585027143e-07
3.700954787e-07
3.813969143e-07
3.924268327e-07
4.032024561e-07
4.13738856e-07
4.240493371e-07
4.341457826e-07
4.440389748e-07
4.537389e-07
4.632550276e-07
4.725968432e-07
4.817708188e-07
4.908191013e-07
4.994425128e-07
5.100847434e-07
5.07285214e-07
5.643233338e-07
4.19126957e-07
5.177700681e-07
3.15210556e-06
8.328836203e-06
8.671775966e-06
3.990905596e-08
8.104768794e-08
1.119254395e-07
1.378924556e-07
1.608161648e-07
1.81596202e-07
2.007564693e-07
2.186354414e-07
2.35467347e-07
2.514224858e-07
2.666293676e-07
2.811878057e-07
2.95177119e-07
3.086615082e-07
3.216937157e-07
3.34317597e-07
3.465699784e-07
3.584820333e-07
3.700803233e-07
3.813876055e-07
3.92423489e-07
4.032049638e-07
4.137468405e-07
4.240621371e-07
4.34162432e-07
4.440581963e-07
4.537591139e-07
4.6327438e-07
4.726132729e-07
4.817820744e-07
4.908234568e-07
4.99433616e-07
5.10098988e-07
5.070035256e-07
5.660972498e-07
3.961412302e-07
7.464898222e-07
1.09852655e-06
8.584629423e-06
8.954236551e-06
3.990154339e-08
8.103506693e-08
1.119069066e-07
1.378691993e-07
1.607887358e-07
1.815651334e-07
2.007223471e-07
2.185989147e-07
2.354291331e-07
2.513833699e-07
2.665901977e-07
2.811494831e-07
2.951405843e-07
3.086277219e-07
3.216636327e-07
3.342921383e-07
3.465500058e-07
3.584683191e-07
3.70073512e-07
3.813881632e-07
3.924316553e-07
4.032207257e-07
4.137699005e-07
4.240918789e-07
4.341978915e-07
4.440980455e-07
4.5380166e-07
4.63317582e-07
4.726548357e-07
4.818190756e-07
4.908569731e-07
4.99431376e-07
5.102632859e-07
5.061104725e-07
5.698993856e-07
3.724473413e-07
8.102800103e-07
1.463541712e-06
8.850209725e-06
9.23937403e-06
3.989408932e-08
8.102286242e-08
1.11888786e-07
1.378463964e-07
1.607617966e-07
1.815346044e-07
2.006888447e-07
2.185631343e-07
2.353918541e-07
2.51345456e-07
2.665525918e-07
2.811131981e-07
2.951066886e-07
3.085973184e-07
3.216378312e-07
3.34272029e-07
3.465366274e-07
3.58462619e-07
3.700763089e-07
3.81400107e-07
3.924531545e-07
4.032518992e-07
4.138105568e-07
4.241414763e-07
4.342554954e-07
4.441622974e-07
4.538707652e-07
4.63389311e-07
4.727266359e-07
4.818873425e-07
4.909251829e-07
4.994431133e-07
5.10575991e-07
5.04693903e-07
5.750389833e-07
3.492664205e-07
8.875275796e-07
1.889213164e-06
9.10993723e-06
9.526753963e-06
3.988671479e-08
8.101114576e-08
1.11871159e-07
1.378241424e-07
1.607354547e-07
1.815047352e-07
2.006560974e-07
2.185282547e-07
2.353556903e-07
2.513089591e-07
2.665168119e-07
2.810792749e-07
2.950758371e-07
3.08570805e-07
3.216169469e-07
3.34258068e-07
3.46530845e-07
3.58466177e-07
3.700902269e-07
3.814252392e-07
3.924901383e-07
4.033010482e-07
4.138718212e-07
4.242144229e-07
4.343392538e-07
4.442555106e-07
4.539715591e-07
4.634952805e-07
4.728349313e-07
4.81994006e-07
4.910323993e-07
4.994996411e-07
5.109034234e-07
5.033835246e-07
5.803899694e-07
3.245626068e-07
9.832900288e-07
2.299044232e-06
9.363255943e-06
9.81662521e-06
3.9879449e-08
8.100001003e-08
1.118541291e-07
1.378025576e-07
1.607098461e-07
1.814756778e-07
2.006242758e-07
2.184944702e-07
2.353208669e-07
2.512741459e-07
2.664831798e-07
2.810481094e-07
2.950485223e-07
3.085487964e-07
3.216017528e-07
3.342512225e-07
3.465338509e-07
3.584804579e-07
3.701170717e-07
3.814657402e-07
3.925451807e-07
4.03371223e-07
4.139572942e-07
4.243149103e-07
4.344539937e-07
4.443831943e-07
4.54110275e-07
4.636424742e-07
4.729874945e-07
4.821472541e-07
4.911905664e-07
4.99589712e-07
5.11379029e-07
5.016579596e-07
5.871208328e-07
3.010777234e-07
1.133625877e-06
2.684449817e-06
9.608759661e-06
1.010934614e-05
3.987234025e-08
8.098958461e-08
1.118378363e-07
1.377818005e-07
1.606851465e-07
1.814476274e-07
2.005935984e-07
2.184620284e-07
2.352876698e-07
2.512413523e-07
2.664520983e-07
2.810201931e-07
2.950253504e-07
3.085320441e-07
3.215931875e-07
3.342526508e-07
3.465470656e-07
3.585071975e-07
3.701589612e-07
3.815242077e-07
3.926213909e-07
4.034660657e-07
4.140712578e-07
4.24447952e-07
4.346055217e-07
4.445520135e-07
4.54294503e-07
4.638394631e-07
4.731939008e-07
4.823577897e-07
4.914101156e-07
4.997360327e-07
5.119462177e-07
4.999091179e-07
5.939160662e-07
2.568002722e-07
2.781002631e-07
3.061839328e-06
9.845925073e-06
1.040439722e-05
3.986545296e-08
8.097998005e-08
1.118224323e-07
1.377620462e-07
1.60661554e-07
1.814208072e-07
2.00564318e-07
2.184312185e-07
2.352564344e-07
2.512109749e-07
2.664240447e-07
2.809961083e-07
2.950070326e-07
3.085214316e-07
3.215923448e-07
3.342637035e-07
3.465721615e-07
3.585484579e-07
3.702184077e-07
3.816036834e-07
3.927224601e-07
4.035899648e-07
4.14218849e-07
4.246195644e-07
4.348008492e-07
4.447700679e-07
4.545335249e-07
4.640968035e-07
4.734660628e-07
4.8263889e-07
4.917058207e-07
4.99954879e-07
5.126157135e-07
4.981852705e-07
6.008211472e-07
1.781117477e-07
5.123782005e-07
3.440968946e-06
1.007290576e-05
1.070032924e-05
3.985883669e-08
8.097115485e-08
1.118080065e-07
1.377434314e-07
1.606392453e-07
1.813954322e-07
2.005366891e-07
2.184023409e-07
2.352275172e-07
2.511834425e-07
2.663995438e-07
2.809765029e-07
2.949943688e-07
3.085179662e-07
3.216004869e-07
3.342859692e-07
3.466111272e-07
3.586067006e-07
3.702984254e-07
3.817078169e-07
3.928527959e-07
4.03748217e-07
4.144063256e-07
4.248370676e-07
4.350484988e-07
4.450472225e-07
4.548386908e-07
4.64427481e-07
4.738187703e-07
4.83007134e-07
4.920969901e-07
5.002636205e-07
5.134143602e-07
4.966298187e-07
6.058288113e-07
1.491329422e-07
7.193652684e-07
3.830849467e-06
1.028632404e-05
1.099773951e-05
3.985253716e-08
8.09630202e-08
1.117946358e-07
1.377260981e-07
1.606184194e-07
1.813717543e-07
2.005110175e-07
2.18375761e-07
2.352013546e-07
2.511592784e-07
2.663792303e-07
2.809621523e-07
2.949883326e-07
3.085228696e-07
3.216191533e-07
3.343213806e-07
3.466663761e-07
3.586849188e-07
3.704026926e-07
3.818410857e-07
3.930177854e-07
4.039472797e-07
4.14641355e-07
4.251094319e-07
4.353588942e-07
4.453955311e-07
4.552238808e-07
4.64847429e-07
4.742702537e-07
4.83483523e-07
4.926043835e-07
5.007176853e-07
5.141253821e-07
4.971981294e-07
5.95734717e-07
4.161588559e-07
9.326028728e-07
1.466410416e-06
1.049073067e-05
1.129849782e-05
3.984667623e-08
8.095589119e-08
1.117826123e-07
1.377103712e-07
1.6059945e-07
1.813502047e-07
2.004877998e-07
2.183520517e-07
2.351786116e-07
2.511392594e-07
2.663640133e-07
2.80954123e-07
2.949902239e-07
3.085377216e-07
3.21650276e-07
3.343723163e-07
3.467408555e-07
3.587867623e-07
3.70535707e-07
3.820089866e-07
3.93224065e-07
4.041950809e-07
4.149333337e-07
4.254476867e-07
4.357448717e-07
4.458298509e-07
4.557062231e-07
4.653763471e-07
4.748431373e-07
4.840941675e-07
4.932556488e-07
5.013712378e-07
5.146633413e-07
4.993160096e-07
6.000745581e-07
6.499614357e-08
9.506916119e-07
1.654874931e-06
1.070694324e-05
1.160182157e-05
3.984138258e-08
8.095032157e-08
1.117723837e-07
1.376967362e-07
1.605828761e-07
1.813313886e-07
2.00467719e-07
2.183319885e-07
2.351601792e-07
2.511244221e-07
2.663551117e-07
2.809538583e-07
2.950017452e-07
3.085645471e-07
3.216962855e-07
3.344417273e-07
3.468381717e-07
3.589166513e-07
3.70702908e-07
3.822181913e-07
3.934797466e-07
4.045013672e-07
4.152938544e-07
4.258654838e-07
4.362223366e-07
4.463686014e-07
4.563069863e-07
4.66038773e-07
4.75565808e-07
4.848711846e-07
4.940960483e-07
5.021899776e-07
5.156906337e-07
5.004063108e-07
5.977129717e-07
1.734362099e-07
9.990035171e-07
2.066508664e-06
1.091889772e-05
1.190701213e-05
3.983666376e-08
8.094640765e-08
1.117642264e-07
1.376856012e-07
1.605692086e-07
1.813159157e-07
2.004514916e-07
2.18316408e-07
2.351470365e-07
2.511159268e-07
2.663539184e-07
2.809630787e-07
2.95024998e-07
3.086059124e-07
3.217603062e-07
3.345334026e-07
3.469628912e-07
3.590801026e-07
3.709110044e-07
3.824768667e-07
3.937947633e-07
4.048781417e-07
4.157372755e-07
4.263797945e-07
4.368111077e-07
4.470347325e-07
4.570526552e-07
4.668653106e-07
4.764737377e-07
4.858565257e-07
4.951689691e-07
5.032640339e-07
5.171331093e-07
5.005214883e-07
5.926529107e-07
4.945969024e-07
1.078009895e-06
2.435376362e-06
1.112319282e-05
1.221366547e-05
3.983259863e-08
8.094428033e-08
1.117583994e-07
1.376773508e-07
1.605589574e-07
1.813044231e-07
2.004398912e-07
2.183062375e-07
2.351402881e-07
2.511150952e-07
2.663620234e-07
2.80983745e-07
2.950624316e-07
3.08664907e-07
3.218462377e-07
3.346521971e-07
3.471209582e-07
3.592843223e-07
3.711686531e-07
3.827953842e-07
3.94181577e-07
4.053403737e-07
4.162814845e-07
4.270118191e-07
4.375360425e-07
4.478570679e-07
4.579764775e-07
4.67894365e-07
4.776115558e-07
4.871036976e-07
4.965202363e-07
5.048665792e-07
5.172816557e-07
5.110509021e-07
5.757846075e-07
2.269012597e-07
1.157062031e-06
2.768261942e-06
1.131884847e-05
1.25214365e-05
3.982930377e-08
8.094416976e-08
1.11755281e-07
1.376725068e-07
1.60552792e-07
1.812977347e-07
2.004339103e-07
2.183026641e-07
2.351413505e-07
2.511236197e-07
2.663814586e-07
2.810182843e-07
2.951169903e-07
3.087451655e-07
3.219586328e-07
3.348038666e-07
3.473196757e-07
3.595384563e-07
3.714870485e-07
3.831872566e-07
3.946563422e-07
4.059072656e-07
4.169492347e-07
4.27788412e-07
4.384285905e-07
4.488720718e-07
4.591204835e-07
4.691744474e-07
4.790362572e-07
4.886739334e-07
4.982973557e-07
5.064596627e-07
5.209723764e-07
5.057042493e-07
5.978558724e-07
1.270120217e-07
1.244514591e-06
3.0842394e-06
1.150457238e-05
1.283008941e-05
3.982696314e-08
8.094649151e-08
1.11755425e-07
1.376717798e-07
1.60551591e-07
1.812969115e-07
2.00434812e-07
2.183071842e-07
2.351520018e-07
2.511436228e-07
2.664148011e-07
2.810698236e-07
2.951924826e-07
3.088513173e-07
3.22103121e-07
3.34995334e-07
3.475676955e-07
3.598534076e-07
3.718799427e-07
3.836696324e-07
3.952400048e-07
4.066039381e-07
4.177702474e-07
4.287444137e-07
4.395292818e-07
4.501265166e-07
4.605383378e-07
4.707673757e-07
4.80818885e-07
4.906636097e-07
5.005017856e-07
5.090123723e-07
5.229281743e-07
5.12660325e-07
5.872638301e-07
2.460975142e-07
1.361149436e-06
3.434509739e-06
1.168003469e-05
1.314010571e-05
3.982572986e-08
8.095155861e-08
1.117593754e-07
1.376759301e-07
1.605563369e-07
1.813031723e-07
2.004440753e-07
2.183215733e-07
2.351743716e-07
2.511776651e-07
2.664651616e-07
2.811421815e-07
2.952936406e-07
3.089892568e-07
3.22287036e-07
3.352356502e-07
3.478760824e-07
3.602427434e-07
3.723641982e-07
3.842636058e-07
3.959588865e-07
4.074627746e-07
4.18783538e-07
4.299259103e-07
4.408916624e-07
4.516818069e-07
4.622999487e-07
4.727528739e-07
4.830526652e-07
4.931758838e-07
5.033305376e-07
5.122501836e-07
5.262868914e-07
5.155413465e-07
6.042861452e-07
1.204320003e-07
1.514766394e-06
3.787552338e-06
1.184245572e-05
1.345170629e-05
3.982580374e-08
8.095977944e-08
1.117677925e-07
1.376858685e-07
1.605682064e-07
1.813179838e-07
2.004634911e-07
2.183479981e-07
2.352110767e-07
2.512289205e-07
2.665364014e-07
2.81240099e-07
2.954263204e-07
3.091662614e-07
3.225194705e-07
3.355362142e-07
3.482591014e-07
3.607241774e-07
3.729616178e-07
3.849960409e-07
3.968463129e-07
4.085250783e-07
4.20039761e-07
4.313938884e-07
4.425874354e-07
4.536204224e-07
4.644989709e-07
4.75237195e-07
4.858612484e-07
4.963462963e-07
5.070484153e-07
5.159578086e-07
5.327687134e-07
5.165741104e-07
6.031385493e-07
5.166204208e-07
2.380540112e-07
4.083642555e-06
1.198755984e-05
1.376423956e-05
3.982740448e-08
8.097158801e-08
1.117814164e-07
1.377026354e-07
1.605885622e-07
1.813430621e-07
2.00495176e-07
2.183890433e-07
2.352652674e-07
2.513012489e-07
2.666332666e-07
2.813694623e-07
2.955978602e-07
3.093915008e-07
3.228118829e-07
3.359113362e-07
3.487346446e-07
3.613201195e-07
3.737002618e-07
3.859019564e-07
3.979457675e-07
4.098446746e-07
4.216052991e-07
4.332294568e-07
4.447137455e-07
4.56055955e-07
4.672660877e-07
4.783709619e-07
4.894166852e-07
5.004111214e-07
5.117724934e-07
5.212693452e-07
5.39660757e-07
5.264774856e-07
5.861900272e-07
4.73411194e-07
1.589148115e-06
4.299455227e-06
1.212048373e-05
1.407703946e-05
3.983077873e-08
8.09874631e-08
1.118010825e-07
1.377274194e-07
1.606189775e-07
1.813804099e-07
2.005416247e-07
2.184477869e-07
2.353407358e-07
2.513993402e-07
2.667615867e-07
2.815375645e-07
2.958174238e-07
3.096765172e-07
3.231788069e-07
3.363792766e-07
3.493255738e-07
3.620591216e-07
3.746158733e-07
3.870264041e-07
3.993142643e-07
4.1149379e-07
4.23571277e-07
4.355468056e-07
4.474110851e-07
4.591572272e-07
4.70800487e-07
4.823875684e-07
4.939907269e-07
5.057431271e-07
5.177429003e-07
5.297493389e-07
5.454917287e-07
5.376614837e-07
6.404971808e-07
2.182787999e-07
1.717042248e-06
4.576215381e-06
1.22345228e-05
1.439015986e-05
3.983619419e-08
8.100792048e-08
1.11827718e-07
1.377615589e-07
1.606612477e-07
1.81432339e-07
2.006057504e-07
2.185278659e-07
2.354420181e-07
2.515288723e-07
2.669285143e-07
2.817534494e-07
2.960964855e-07
3.100358741e-07
3.236386702e-07
3.369632557e-07
3.500610394e-07
3.629777841e-07
3.757548368e-07
3.884292487e-07
4.010306673e-07
4.135769969e-07
4.260761905e-07
4.385262198e-07
4.509045608e-07
4.631920867e-07
4.754011249e-07
4.875948474e-07
4.999106895e-07
5.126365428e-07
5.258698835e-07
5.405491521e-07
5.562451854e-07
5.614631695e-07
6.189336102e-07
4.618715493e-07
6.841204507e-07
4.757376438e-06
1.232992795e-05
1.470420107e-05
3.984393509e-08
8.103350921e-08
1.118623365e-07
1.37806542e-07
1.607173965e-07
1.8150149e-07
2.006909249e-07
2.186335489e-07
2.355745139e-07
2.516966967e-07
2.671428036e-07
2.820283259e-07
2.964494206e-07
3.104879546e-07
3.242148702e-07
3.376929226e-07
3.509787322e-07
3.641248866e-07
3.771822225e-07
3.901994666e-07
4.032196485e-07
4.16256076e-07
4.293220925e-07
4.424015124e-07
4.554275091e-07
4.683262722e-07
4.810439425e-07
4.936503652e-07
5.065048883e-07
5.19972876e-07
5.35675659e-07
5.518282632e-07
5.751647948e-07
5.848949256e-07
6.263214811e-07
6.411602644e-07
1.842967705e-06
5.185540465e-06
1.239050379e-05
1.50205049e-05
3.985428886e-08
8.106480376e-08
1.119060258e-07
1.378639954e-07
1.607896726e-07
1.815908408e-07
2.008010088e-07
2.187698016e-07
2.357446139e-07
2.519110553e-07
2.674151231e-07
2.823760645e-07
2.968942317e-07
3.110560083e-07
3.249377938e-07
3.386086074e-07
3.521339803e-07
3.655781467e-07
3.790037803e-07
3.924679452e-07
4.060235009e-07
4.196070843e-07
4.332333499e-07
4.468153057e-07
4.601634838e-07
4.730240422e-07
4.852938898e-07
4.973650187e-07
5.101124695e-07
5.233963194e-07
5.437961279e-07
5.535675522e-07
5.951258257e-07
5.920975194e-07
6.776695629e-07