/*--------------------------------*- C++ -*----------------------------------*\
| =========                 |                                                 |
| \\      /  F ield         | OpenFOAM: The Open Source CFD Toolbox           |
|  \\    /   O peration     | Version:  v1912                                 |
|   \\  /    A nd           | Website:  www.openfoam.com                      |
|    \\/     M anipulation  |                                                 |
\*---------------------------------------------------------------------------*/
FoamFile
{
    version     2.0;
    format      ascii;
    class       volScalarField;
    location    "0.7";
    object      alpha.gas;
}
// * * * * * * * * * * * * * * * * * * * * * * * * * * * * * * * * * * * * * //

dimensions      [0 0 0 0 0 0 0];


internalField   nonuniform List<scalar> 
4800
(
3.29939177e-175
1.562541114e-175
1.14942108e-175
9.949098677e-176
9.329045138e-176
9.477908011e-176
1.017960918e-175
1.142934319e-175
1.333320126e-175
1.609714927e-175
2.002615649e-175
2.557826218e-175
2.70933108e-175
1.792050499e-170
2.312288432e-170
1.45509961e-170
1.56458425e-170
2.761935192e-167
6.631797056e-164
1.405253737e-160
2.497757745e-157
4.498613536e-154
2.128174822e-151
1.072996024e-148
1.174049981e-149
6.513675126e-136
1.391102813e-136
7.269075814e-138
2.247854992e-108
1.150544227e-106
1.035979303e-121
3.320501084e-80
3.652673106e-79
3.676531525e-79
3.001298362e-64
7.836390991e-82
8.458963381e-52
1.420426224e-70
4.835281203e-05
0.01054377709
1.133746871e-172
5.283167762e-173
3.86597986e-173
3.332633803e-173
3.115162352e-173
3.15184966e-173
3.369656528e-173
3.764284158e-173
4.367165631e-173
5.24069055e-173
6.477199007e-173
8.215253177e-173
8.790682748e-173
4.733894177e-168
6.547337892e-168
4.226188678e-168
2.448444544e-168
2.088192971e-165
4.580909022e-162
8.347466371e-159
1.074049439e-155
1.465319022e-152
2.951055438e-150
1.607073047e-147
1.166307203e-149
2.038645587e-134
1.348672094e-133
2.925678457e-135
1.087571096e-126
8.412767451e-103
0
8.548971445e-79
5.378285701e-96
1.205909542e-64
1.228233226e-62
8.72042468e-82
4.293014398e-50
5.534221206e-69
0.000187367617
0.01513542703
1.832553968e-170
8.451726142e-171
6.154905838e-171
5.284018171e-171
4.923031679e-171
4.959534526e-171
5.276564665e-171
5.863052096e-171
6.762273835e-171
8.062716627e-171
9.895305884e-171
1.245660132e-170
1.343857584e-170
5.818153305e-166
8.684806796e-166
5.742697803e-166
2.551005023e-166
7.49367551e-164
1.558545084e-160
2.571078221e-157
2.328223422e-154
1.9218317e-151
9.915242253e-150
3.394683683e-146
1.542189471e-146
3.987367825e-150
1.822714007e-128
7.266594987e-129
0
4.769922794e-99
0
3.805531159e-77
0
4.250064614e-61
6.566276876e-60
2.826859744e-78
8.849270483e-48
0
0.0004177842773
0.02051756978
1.896574104e-168
8.675110895e-169
6.289134287e-169
5.377109109e-169
4.992903324e-169
5.007706198e-169
5.301330351e-169
5.858280749e-169
6.716165098e-169
7.954863588e-169
9.69262621e-169
1.210746826e-168
1.314864056e-168
4.512917704e-164
7.336894112e-164
4.969021093e-164
2.032531359e-164
1.688832151e-162
3.42316672e-159
5.411084841e-156
3.725397292e-153
1.300089031e-150
4.36699236e-151
3.147591299e-142
3.170950187e-143
0
7.629639365e-124
2.366761738e-124
5.630373182e-143
3.270085966e-96
0
6.269636202e-76
8.353248051e-96
1.601954425e-58
8.56734289e-58
3.718741749e-76
6.359672802e-46
6.714920648e-73
0.0007162206398
0.02555536959
1.418668464e-166
6.442142117e-167
4.650105594e-167
3.959474585e-167
3.663917958e-167
3.658255331e-167
3.853141483e-167
4.234164465e-167
4.824490204e-167
5.675855712e-167
6.864982725e-167
8.508014653e-167
9.28698886e-167
2.488019098e-162
4.451810464e-162
3.087364235e-162
1.24037914e-162
2.642427943e-161
5.264804756e-158
8.279181389e-155
4.851220229e-152
4.526973994e-150
4.366129384e-151
3.667650225e-140
4.671518433e-141
0
7.702564645e-121
1.98838861e-121
0
2.513764701e-93
3.324212304e-113
5.242872587e-75
2.306557553e-94
1.605742306e-56
3.766453977e-56
3.063031014e-77
1.415382372e-44
0
0.001079007263
0.02995269331
8.184793522e-165
3.691762015e-165
2.653538645e-165
2.250171601e-165
2.074899974e-165
2.062229697e-165
2.160911601e-165
2.361117569e-165
2.673564786e-165
3.123868809e-165
3.750151231e-165
4.61064532e-165
5.050986067e-165
1.038149959e-160
2.068973991e-160
1.468604533e-160
5.906312964e-161
3.096261583e-160
5.889874645e-157
9.39163966e-154
5.005678718e-151
6.811498868e-150
6.784195043e-149
9.627815985e-140
5.975896217e-140
2.002999791e-159
4.171369983e-119
1.35981684e-119
0
3.369241768e-90
5.888804323e-109
2.445190238e-74
5.205699468e-93
5.067120189e-55
6.450218133e-55
4.950630732e-74
9.478378379e-44
7.386142651e-67
0.001365622704
0.03386002644
3.791121096e-163
1.699027404e-163
1.216102891e-163
1.026999117e-163
9.436115334e-164
9.334992841e-164
9.730560055e-164
1.057079191e-163
1.189400157e-163
1.38009117e-163
1.644235943e-163
2.005181123e-163
2.201318687e-163
3.40467687e-159
7.661016587e-159
5.562014498e-159
2.250902264e-159
3.136540802e-159
4.906473896e-156
8.003008145e-153
3.939634634e-150
3.310364882e-150
9.307264551e-148
1.504205996e-147
2.400432272e-136
3.796357656e-162
2.378527986e-118
1.750402361e-117
0
8.149314375e-88
4.189359961e-106
6.489691662e-74
5.05046188e-93
4.319456254e-54
5.008910742e-54
0
1.066425951e-43
2.127879554e-65
0.001755677508
0.03730025239
1.448196735e-161
6.449635305e-162
4.597113896e-162
3.86619083e-162
3.539269416e-162
3.484838383e-162
3.613212893e-162
3.902219722e-162
4.362504477e-162
5.026296561e-162
5.94235586e-162
7.187524713e-162
7.895296112e-162
8.990833427e-158
2.319858042e-157
1.720927848e-157
7.019383875e-158
3.761357271e-158
3.097205127e-155
5.17948445e-152
2.334224498e-149
1.259805508e-149
6.050382191e-147
4.879905167e-157
2.356870143e-133
2.482990636e-133
7.38151954e-137
4.208093699e-113
0
5.148218056e-86
0
1.301472069e-73
2.34466087e-92
1.022360211e-53
1.602899624e-53
0
1.064713693e-43
2.167241276e-64
0.002294241145
0.04031766876
4.649452426e-160
2.057831894e-160
1.460591366e-160
1.223229686e-160
1.115596506e-160
1.093171573e-160
1.127316902e-160
1.210231363e-160
1.344154265e-160
1.537608961e-160
1.803699896e-160
2.163573479e-160
2.37445296e-160
1.942063339e-156
5.849051162e-156
4.427206081e-156
1.821644039e-156
6.480280419e-157
1.509251009e-154
2.560870608e-151
1.044027967e-148
4.255372367e-149
4.132679568e-146
4.784938742e-157
3.624013842e-131
4.575716353e-131
0
9.253209559e-109
0
1.484048011e-84
0
4.011710673e-73
2.633641983e-92
1.302950558e-53
1.624577068e-53
6.782762806e-75
1.062113514e-43
1.890288507e-63
0.002856116141
0.04299913484
1.271879726e-158
5.594326326e-159
3.953780819e-159
3.297235353e-159
2.995537992e-159
2.920971499e-159
2.995618989e-159
3.196418348e-159
3.526537879e-159
4.004772002e-159
4.660753867e-159
5.54377257e-159
6.069348045e-159
3.465305844e-155
1.243282189e-154
9.583997998e-155
3.981938943e-155
1.266846395e-155
5.914433582e-154
9.648022691e-151
3.573939103e-148
8.090588916e-149
2.093571261e-144
4.621252767e-157
1.625884804e-129
1.810810016e-129
0
1.435204992e-104
0
2.851956518e-83
0
9.2978273e-73
1.871206387e-92
1.327493871e-53
1.623838471e-53
2.963199799e-72
1.060355414e-43
0
0.003418793712
0.04540261949
2.994565342e-157
1.308866136e-157
9.210287969e-158
7.647843418e-158
6.920561836e-158
6.714572535e-158
6.847428242e-158
7.26109891e-158
7.956679925e-158
8.968819277e-158
1.035435326e-157
1.221148781e-157
1.33165336e-157
5.134694615e-154
2.246279261e-153
1.759495851e-153
7.390920037e-154
2.287279323e-154
2.130295696e-153
2.73080086e-150
9.781880966e-148
9.014063561e-149
7.378857288e-143
4.80107344e-157
2.81792765e-128
2.915355594e-128
2.646252987e-147
2.274507219e-101
0
2.184430483e-82
0
9.334511646e-73
8.347382037e-92
1.341950854e-53
1.49269196e-53
4.648873367e-66
9.988850285e-44
2.144449811e-44
0.003964071408
0.04758568382
6.113116015e-156
2.654763025e-156
1.859838593e-156
1.537563504e-156
1.385666414e-156
1.337537303e-156
1.356139335e-156
1.428926272e-156
1.554941022e-156
1.739500733e-156
1.991898832e-156
2.328969961e-156
2.525884858e-156
6.325522072e-153
3.463896902e-152
2.750379973e-152
1.170051188e-152
3.598476264e-153
9.511056171e-153
5.636198513e-150
2.210172155e-147
9.241266869e-149
8.057819639e-142
4.664846859e-157
2.080000657e-127
2.401121627e-127
4.001380154e-146
5.36146277e-99
0
3.265368467e-82
0
9.325269767e-73
1.738749267e-91
1.338695829e-53
2.686508032e-72
1.231653424e-47
7.24048995e-45
2.555835798e-25
0.004503200644
0.04959043518
1.08769212e-154
4.692354401e-155
3.27236653e-155
2.693193933e-155
2.416875757e-155
2.3206331e-155
2.338947593e-155
2.448354734e-155
2.645262053e-155
2.936362705e-155
3.334648807e-155
3.865053631e-155
4.162668969e-155
6.459463203e-152
4.557649012e-151
3.660027842e-151
1.580767657e-151
4.875254046e-152
6.059547302e-152
8.084096215e-150
2.815218498e-147
9.435081784e-149
1.547924258e-141
4.841926991e-157
7.167607313e-127
1.013582964e-126
0
3.185922064e-97
0
3.266239275e-82
0
9.321266957e-73
5.906247396e-92
1.247341871e-53
0
4.519021823e-47
0
1.420838273e-06
0.005036757346
0.05144932805
1.692652983e-153
7.252240674e-154
5.033909661e-154
4.123854812e-154
3.684474882e-154
3.51843746e-154
3.524404938e-154
3.664244935e-154
3.929773744e-154
4.327657716e-154
4.873434033e-154
5.59905763e-154
5.978990722e-154
5.424591761e-151
5.093357116e-150
4.123100695e-150
1.815045736e-150
5.655088953e-151
4.379320317e-151
7.803101118e-150
3.786404045e-147
1.026931895e-148
1.548896748e-141
4.679635246e-157
1.328240857e-126
2.096863597e-126
1.52798758e-145
8.110564273e-96
8.649344079e-115
3.262789961e-82
0
9.311592895e-73
7.762266239e-92
8.918204075e-54
0
4.576357807e-47
6.02721503e-66
5.333725706e-06
0.005565700571
0.05318612826
2.308161849e-152
9.818783621e-153
6.782288557e-153
5.529551273e-153
4.917537804e-153
4.669093622e-153
4.646954841e-153
4.797142061e-153
5.10548171e-153
5.576707796e-153
6.226630319e-153
7.090577574e-153
7.49521823e-153
3.690842197e-150
4.817049462e-149
3.887558019e-149
1.753476865e-149
5.563563091e-150
3.034576625e-150
6.454872842e-150
1.851915458e-146
6.400138004e-147
1.495325981e-141
9.062686701e-147
1.582071035e-126
2.554201574e-126
0
1.132902974e-94
0
3.259482792e-82
0
8.507901476e-73
0
3.814241708e-54
0
4.574837967e-47
0
1.164744302e-05
0.00609096441
0.05481607192
2.758935733e-151
1.16474997e-151
8.004317835e-152
6.492890013e-152
5.745655959e-152
5.422277603e-152
5.359953036e-152
5.49207407e-152
5.798766708e-152
6.281303301e-152
6.95302614e-152
7.847251899e-152
8.196033063e-152
1.981440916e-149
3.92895992e-148
3.053848291e-148
1.403375928e-148
4.568307555e-149
1.925542965e-149
1.02187144e-150
1.051966902e-142
1.217559936e-143
1.382791961e-156
1.519636253e-128
4.44398895e-126
2.650046894e-126
1.122325748e-144
6.24731438e-94
0
3.25789756e-82
7.900208703e-102
5.305927699e-73
5.76419947e-92
7.358701595e-55
3.892140574e-74
3.098435485e-47
0
1.992324328e-05
0.006614876138
0.05634793
2.886427607e-150
1.208527793e-150
8.259274756e-151
6.663096294e-151
5.864321808e-151
5.498087071e-151
5.395653014e-151
5.48540384e-151
5.744116849e-151
6.169154541e-151
6.769017473e-151
7.570004719e-151
7.793875916e-151
7.992689961e-149
3.014572384e-147
2.165528566e-147
9.200226018e-148
3.061982656e-148
1.087697144e-148
1.49087274e-155
8.087326702e-138
7.509755365e-139
1.674445464e-156
3.012390761e-126
9.34630406e-124
5.378925887e-125
3.26606971e-144
8.580481097e-94
9.928345087e-113
2.66055628e-82
3.084957467e-101
1.685722405e-73
1.940352522e-92
4.580843245e-56
0
8.669465694e-48
1.105443023e-66
2.977703498e-05
0.007139522144
0.05778858514
2.633035614e-149
1.092151118e-149
7.417883752e-150
5.947954928e-150
5.20317622e-150
4.843399315e-150
4.716386972e-150
4.755110504e-150
4.936514392e-150
5.254953805e-150
5.713081473e-150
6.328203579e-150
6.402785455e-150
2.180606787e-148
2.579890446e-146
1.980798107e-146
5.122106082e-147
1.668392081e-147
5.242701026e-148
9.530032632e-160
6.094967437e-133
4.042055513e-134
1.845351577e-152
1.124951133e-124
1.031478333e-122
5.110147757e-121
7.022733373e-140
8.575680147e-94
0
1.467476251e-82
0
1.954249308e-74
2.927521547e-93
6.398919348e-58
0
6.592091294e-49
5.917524273e-72
4.106360222e-05
0.007664488081
0.05914535978
2.079177023e-148
8.530009931e-149
5.752510979e-149
4.580648715e-149
3.979282214e-149
3.674641456e-149
3.547883079e-149
3.544556735e-149
3.64515184e-149
3.843658717e-149
4.13827632e-149
4.53889968e-149
4.494756869e-149
2.803708539e-148
5.422216145e-144
8.461698582e-145
2.943049534e-146
9.187300859e-147
2.12678268e-147
5.457081747e-164
4.389114772e-128
1.844573738e-129
0
1.957205338e-123
1.057146933e-139
5.061388127e-116
5.199444831e-135
8.572866447e-94
0
5.592961056e-83
1.114134444e-101
4.975889245e-76
7.340777421e-85
1.399941903e-60
3.367553164e-84
8.873835933e-51
1.440310186e-78
5.370880542e-05
0.008189369785
0.06042670984
1.405249298e-147
5.690965414e-148
3.805993934e-148
3.005876428e-148
2.589471315e-148
2.368586206e-148
2.263650681e-148
2.236880842e-148
2.27527315e-148
2.377092679e-148
2.53869454e-148
2.762299429e-148
2.661277222e-148
1.257426245e-153
2.443183384e-139
3.295312365e-140
2.523607338e-142
1.505272004e-145
9.602670759e-147
4.747726473e-166
1.191240025e-124
4.43238752e-126
0
4.056004137e-121
9.761829676e-140
4.335565346e-111
3.125666839e-130
8.568840601e-94
0
2.410104186e-83
1.216952319e-84
0
1.913544325e-66
5.601317675e-68
3.466997927e-56
1.44220136e-53
7.821926516e-77
6.775414632e-05
0.008713851375
0.06164104279
8.031558079e-147
3.203140877e-147
2.119838639e-147
1.656228849e-147
1.410458433e-147
1.273253093e-147
1.19960836e-147
1.168865245e-147
1.17748871e-147
1.231915367e-147
1.323249415e-147
1.437129197e-147
1.329497193e-147
4.665387864e-155
3.034115173e-135
2.188411585e-136
8.797496587e-139
4.192544624e-142
1.240606021e-145
3.665725951e-165
1.031481458e-122
7.074878827e-124
0
3.160224187e-119
0
1.257579146e-107
1.693026832e-126
7.500320873e-94
1.555547338e-112
5.373228005e-83
2.134832174e-83
6.780335063e-94
1.918418135e-66
5.978867175e-68
3.598450443e-56
3.511210149e-56
2.375380332e-76
8.321634422e-05
0.009237935023
0.06279657604
3.908823516e-146
1.524899786e-146
9.926271731e-147
7.621020821e-147
6.367581631e-147
5.628461188e-147
5.19936228e-147
5.03520527e-147
5.212113477e-147
5.818534988e-147
6.513066519e-147
6.975043054e-147
5.982337817e-147
4.733935045e-155
1.658264184e-132
8.432217339e-134
2.600506161e-136
1.513501312e-139
5.243059377e-143
0
5.641222982e-122
1.936310684e-121
8.188714756e-122
1.314153476e-118
1.255106493e-123
1.017836121e-105
1.937984131e-124
4.285567845e-94
0
5.361548231e-83
2.159587626e-79
0
1.022209952e-66
1.447325003e-88
2.75825651e-56
1.001811835e-56
1.087091637e-78
0.0001000216071
0.009761402661
0.0639011567
1.763574269e-145
6.552899486e-146
4.132735092e-146
3.077668871e-146
2.495731445e-146
2.156998443e-146
2.01825327e-146
2.197988055e-146
2.851731325e-146
3.802525346e-146
4.134812027e-146
3.96870858e-146
2.911062437e-146
1.836451544e-152
5.097210908e-131
3.58663048e-132
1.919761769e-134
4.929313066e-137
1.439725573e-139
1.816597165e-136
0
8.97861824e-117
3.085547564e-117
6.827455133e-121
2.382455653e-107
4.220596916e-105
6.626928349e-110
1.268019884e-94
1.450757092e-95
0
3.107554505e-75
9.956031428e-94
1.457071999e-67
0
6.778486051e-57
1.903246559e-57
3.586039366e-80
0.000118584773
0.01028443248
0.06496136939
9.286080128e-145
3.174998839e-145
1.926917912e-145
1.396503492e-145
1.147510708e-145
1.110527869e-145
1.411494934e-145
2.586006452e-145
5.978474569e-145
1.613065772e-144
4.838819538e-144
1.594889267e-143
5.962196692e-146
3.266596434e-139
1.348097073e-130
8.742284514e-131
2.331505686e-131
1.014200716e-132
4.854467228e-135
1.490693611e-130
1.940623479e-145
2.821426732e-113
7.873974074e-114
1.365689828e-126
9.266480689e-105
3.096114857e-118
2.562652313e-94
1.077843526e-95
2.350289844e-92
8.421215434e-107
1.502052448e-72
2.889180024e-90
3.503303211e-69
0
3.18597265e-58
9.824925894e-59
1.192935792e-80
0.0001390544665
0.01080700076
0.06598140337
3.399542211e-142
3.626603566e-142
4.60733148e-142
6.574232297e-142
1.052766979e-141
1.911203357e-141
3.889835032e-141
8.799689344e-141
2.204898284e-140
6.089198753e-140
1.845520065e-139
6.135453034e-139
2.288997862e-138
1.01562897e-137
6.619841235e-148
1.546299748e-126
5.94299735e-127
2.190934194e-128
1.48186861e-130
1.068150851e-126
0
4.100015417e-111
8.855026264e-112
5.562838902e-109
1.008415711e-103
1.402929896e-118
8.963122797e-92
1.024706664e-95
9.622250336e-88
3.716320507e-107
4.164906523e-71
7.270548179e-72
1.246786563e-71
0
2.505973075e-60
1.200174781e-60
2.99102064e-80
0.0001612125858
0.01132880323
0.06696322844
1.158731104e-137
1.236423903e-137
1.572344929e-137
2.247918707e-137
3.610699272e-137
6.582831448e-137
1.346778702e-136
3.065949181e-136
7.740483575e-136
2.157027601e-135
6.612641315e-135
2.240441331e-134
8.78701316e-134
5.351741134e-133
0
1.798929721e-122
5.164774717e-123
1.329427455e-124
7.068616727e-126
7.676108726e-125
0
4.390552017e-110
4.863969598e-111
2.967861991e-107
3.184004129e-105
6.046099305e-111
6.465730234e-91
5.326758159e-87
1.749818214e-83
2.696720627e-109
1.321931672e-70
2.414916199e-69
3.545666714e-68
0
4.757674491e-58
2.346210794e-58
0
0.0001860545277
0.0118485388
0.06790918129
3.712883457e-133
3.963469314e-133
5.045243323e-133
7.226666417e-133
1.164277972e-132
2.131649414e-132
4.383809753e-132
1.00429469e-131
2.55507411e-131
7.187988835e-131
2.232988499e-130
7.774309328e-130
3.331185639e-129
2.593359891e-128
1.883227797e-147
1.592650103e-119
3.981050017e-120
1.397132506e-121
4.676946125e-121
7.722428517e-125
1.928477959e-115
5.719551317e-110
3.040085147e-112
1.509391515e-102
3.287160003e-118
2.339233879e-92
0
1.305827203e-81
1.803822635e-80
3.798452947e-81
0
1.156651421e-64
6.041673447e-64
1.438800313e-82
5.566615419e-56
2.094783253e-56
8.119820783e-77
0.0002126446579
0.01236639125
0.06882399599
1.119825167e-128
1.195862179e-128
1.523684823e-128
2.186503881e-128
3.533083689e-128
6.495834971e-128
1.342795016e-127
3.095762839e-127
7.938491824e-127
2.256479588e-126
7.129598546e-126
2.592050448e-125
1.283714564e-124
1.331500378e-123
1.030692439e-136
2.04927682e-117
6.932831957e-118
1.075427132e-117
3.095791751e-116
8.875071502e-115
1.253433489e-113
1.609694626e-110
3.216568987e-112
9.588523487e-100
0
1.466594129e-88
0
1.259059357e-77
2.468797208e-78
4.724098532e-79
1.548767201e-97
5.137730449e-61
5.998520841e-61
2.961880837e-80
1.052286707e-54
3.368039155e-55
6.644138515e-75
0.0002409024764
0.01288226827
0.06971225093
3.182204936e-124
3.399436858e-124
4.335139527e-124
6.231980969e-124
1.009910802e-123
1.864495772e-123
3.873946282e-123
8.988240951e-123
2.324018474e-122
6.686132635e-122
2.164643305e-121
8.466246668e-121
5.203343601e-120
7.137696792e-119
1.696413545e-117
1.536837371e-115
2.070350382e-114
6.618575287e-113
1.986401481e-111
5.635659534e-110
1.425773752e-108
1.589623397e-110
2.607242485e-103
1.447725715e-98
2.605412949e-105
2.306846385e-86
0
2.561541229e-75
2.058301167e-76
1.716970654e-77
0
9.945132004e-59
4.288894523e-59
0
4.465142842e-54
2.048392916e-54
2.532810888e-73
0.0002706477873
0.01339633014
0.07057821634
8.528198103e-120
9.112917204e-120
1.16306128e-119
1.674764571e-119
2.721587305e-119
5.045036331e-119
1.0535336e-118
2.460234875e-118
6.419266081e-118
1.875986562e-117
6.315872223e-117
2.792198451e-116
2.260703317e-115
3.936760799e-114
1.090157073e-112
3.612812538e-111
1.246317341e-109
4.035815435e-108
1.207178814e-106
3.415505698e-105
8.418036763e-104
1.503948902e-102
1.648120667e-101
8.575377787e-116
2.284633343e-90
1.603866299e-85
2.265034053e-92
2.219209872e-74
6.435961329e-73
1.035153936e-73
0
1.271049751e-57
2.939566529e-58
4.767982477e-57
5.321365637e-54
3.083003388e-52
0
0.0003017149758
0.01390899661
0.0714262208
2.157490842e-115
2.305857353e-115
2.944990849e-115
4.247303755e-115
6.920553138e-115
1.287966795e-114
2.703091076e-114
6.355083909e-114
1.67624575e-113
5.013722782e-113
1.805074401e-112
9.64708732e-112
1.042804715e-110
2.144517738e-109
6.24749274e-108
2.098390598e-106
7.25071442e-105
2.329592389e-103
6.953707806e-102
1.959537503e-100
4.774189417e-99
8.270195503e-98
1.026895126e-96
3.474443259e-115
1.731704057e-88
0
1.662200208e-78
1.366423047e-92
6.003054681e-68
4.80134706e-69
2.103465498e-70
1.659394693e-57
2.92491466e-58
2.659076512e-54
2.126354901e-54
2.765233407e-48
0
0.0003336888522
0.01442026238
0.07226032477
5.157359635e-111
5.512410706e-111
7.044418929e-111
1.017398597e-110
1.661931699e-110
3.104936948e-110
6.549238885e-110
1.551354941e-109
4.152545839e-109
1.290858914e-108
5.21163559e-108
3.585206685e-107
4.956432451e-106
1.132086795e-104
3.405486905e-103
1.15675342e-101
3.992723105e-100
1.273820911e-98
3.796812216e-97
1.064289008e-95
2.562100083e-94
4.3008887e-93
5.089020673e-92
0
1.287222029e-84
0
1.736442273e-73
2.431462344e-93
5.059546754e-63
3.073235395e-64
1.994153369e-70
1.402184395e-57
2.418167911e-55
6.790891224e-53
2.15273233e-54
3.47900737e-45
6.809960509e-64
0.0003662105675
0.01492945467
0.07308228826
1.166107464e-106
1.246283148e-106
1.593333523e-106
2.304069451e-106
3.772568994e-106
7.07478743e-106
1.500146239e-105
3.586891223e-105
9.825420666e-105
3.269346985e-104
1.580641947e-103
1.429613497e-102
2.352331763e-101
5.7353825e-100
1.763339627e-98
6.048929949e-97
2.081076093e-95
6.60308279e-94
1.96452251e-92
5.472562814e-91
1.300594936e-89
2.10915149e-88
2.35740654e-87
0
2.302308361e-82
0
1.021046486e-69
9.754028454e-90
3.724580406e-58
1.677532458e-59
2.09679079e-62
0
2.316536548e-53
5.870606045e-52
2.126301397e-54
8.213835385e-43
1.739244903e-61
0.0003987343894
0.01543580761
0.07388939077
2.496693171e-102
2.667646724e-102
3.411366342e-102
4.938276976e-102
8.103206836e-102
1.525342229e-101
3.253893718e-101
7.887706102e-101
2.250307111e-100
8.427134694e-100
5.187177191e-99
5.94311815e-98
1.090095373e-96
2.774377046e-95
8.669181646e-94
3.000424981e-92
1.026829114e-90
3.246923257e-89
9.627227663e-88
2.664381397e-86
6.240854646e-85
9.742924123e-84
1.025034926e-82
1.316164797e-81
1.794884677e-81
4.828607198e-100
1.430218918e-67
3.315256245e-86
9.930772666e-55
4.75282747e-56
9.392082808e-59
1.01883169e-77
2.09282166e-52
2.722253466e-51
2.152678827e-54
5.300189419e-41
2.947197991e-60
0.0004360789693
0.01593268463
0.07467754952
5.068279438e-98
5.412658856e-98
6.922015491e-98
1.00286998e-97
1.648909872e-97
3.116376586e-97
6.702076231e-97
1.663547701e-96
5.114668022e-96
2.30603839e-95
1.839909969e-94
2.487435312e-93
4.869324439e-92
1.278050428e-90
4.047090873e-89
1.411397126e-87
4.798098653e-86
1.51507496e-84
4.465616233e-83
1.228370692e-81
2.827769448e-80
4.234665514e-79
4.305528281e-78
5.667351967e-77
1.801378841e-81
3.548791712e-71
9.10372562e-67
2.161255961e-83
8.665508937e-53
8.833640936e-54
1.686749557e-55
0
4.594483782e-52
2.1590737e-50
2.126301394e-54
1.262887089e-39
1.582886288e-59
0.0004737760405
0.01642191703
0.07544604351
9.769829934e-94
1.042542857e-93
1.333015386e-93
1.932492539e-93
3.183625218e-93
6.046692276e-93
1.317857125e-92
3.422016364e-92
1.200602134e-91
6.897518781e-91
6.843271557e-90
1.020798648e-88
2.083061872e-87
5.59894226e-86
1.794720864e-84
6.293392642e-83
2.124743028e-81
6.707845701e-80
1.959615431e-78
5.362676401e-77
1.20818854e-75
1.730396573e-74
1.70587005e-73
2.315706242e-72
1.085801845e-70
4.601530569e-69
1.260281152e-67
0
4.836487592e-52
1.196056027e-50
5.096127463e-51
6.84130335e-52
4.63135078e-52
5.517800673e-48
2.152678827e-54
1.238147684e-38
5.400982354e-58
0.0005109199071
0.01690250138
0.07619520638
1.791614146e-89
1.909582304e-89
2.440533845e-89
3.539688029e-89
5.844561604e-89
1.118463763e-88
2.501017219e-88
7.085051042e-88
3.047112147e-87
2.24107702e-86
2.570631124e-85
4.043730504e-84
8.509264411e-83
2.330898373e-81
7.563882992e-80
2.658579174e-78
8.925613275e-77
2.815956624e-75
8.133367866e-74
2.216106245e-72
4.859784663e-71
6.643268561e-70
6.381266302e-69
9.460100103e-68
4.732225197e-66
1.967214073e-64
4.726576778e-79
1.285661348e-54
3.839661367e-69
7.249335152e-46
2.15009335e-46
1.861263592e-47
2.56940187e-49
3.729474829e-46
2.126301394e-54
4.843686706e-38
2.215670047e-62
0.0005468112836
0.01737344224
0.07692535029
3.132629205e-85
3.333311563e-85
4.257127489e-85
6.177368016e-85
1.023539833e-84
1.986777774e-84
4.683508724e-84
1.549076004e-83
8.564864984e-83
7.632846571e-82
9.478542434e-81
1.534234236e-79
3.315000115e-78
9.219107711e-77
3.030634993e-75
1.063512562e-73
3.560738394e-72
1.119549582e-70
3.193433248e-69
8.660498476e-68
1.837376551e-66
2.39558086e-65
2.258170307e-64
3.699808174e-63
1.962907971e-61
7.254453019e-60
4.626015456e-78
6.845706614e-51
1.094883416e-68
3.840119195e-41
8.189690375e-42
3.534047676e-43
4.042345771e-45
8.716601762e-45
2.152678828e-54
7.790409909e-38
1.308127079e-59
0.0005805879647
0.01783366876
0.07763687663
5.237145326e-81
5.559996643e-81
7.09482143e-81
1.030573665e-80
1.71965297e-80
3.440531349e-80
9.011925954e-80
3.751186746e-79
2.61887892e-78
2.619666172e-77
3.372886598e-76
5.557909447e-75
1.230765922e-73
3.464921831e-72
1.154395475e-70
4.028299513e-69
1.350186995e-67
4.209055331e-66
1.186772833e-64
3.195268765e-63
6.521135873e-62
8.115204873e-61
7.574558695e-60
1.38016172e-58
7.721461343e-57
2.504336714e-55
0
8.895641542e-49
0
1.896744913e-37
3.280607543e-38
1.003201263e-39
1.493797497e-41
4.874517592e-43
2.126301395e-54
7.854474917e-38
0
0.0006113296861
0.01828185699
0.07833040043
8.401516254e-77
8.893086111e-77
1.134011353e-76
1.652180228e-76
2.802137968e-76
5.985755614e-76
1.885862894e-75
1.018237952e-74
8.342118937e-74
8.809372003e-73
1.148266036e-71
1.921251441e-70
4.35203739e-69
1.238340796e-67
4.177989414e-66
1.445534981e-64
4.867422066e-63
1.494311969e-61
4.177097532e-60
1.110299342e-58
2.171270758e-57
2.583682336e-56
2.412592795e-55
4.893162854e-54
2.878892727e-52
8.101376603e-51
8.611549636e-50
5.54449649e-48
2.050686575e-52
4.494597201e-35
8.331988763e-36
5.972191516e-37
5.711646483e-38
6.264932595e-39
4.373761815e-40
7.892047992e-38
2.589296611e-56
0.0006376635078
0.01871650539
0.07900712972
1.299514887e-72
1.370551009e-72
1.748255862e-72
2.568610993e-72
4.526612878e-72
1.102089666e-71
4.483590836e-71
2.994012758e-70
2.660150542e-69
2.856268741e-68
3.725920093e-67
6.34130454e-66
1.464628404e-64
4.213233365e-63
1.435103988e-61
4.92116222e-60
1.666842149e-58
5.005694906e-57
1.392781737e-55
3.623210402e-54
6.783691556e-53
7.733909202e-52
7.304018384e-51
1.645947255e-49
1.015283111e-47
2.564129815e-46
2.826781732e-45
0
4.432351887e-34
1.275086613e-33
3.75898796e-34
4.243802738e-33
1.582142427e-33
1.423659926e-34
1.094893342e-35
3.425166293e-37
0
0.0006586782654
0.01913513198
0.07966850055
1.951292575e-68
2.049682563e-68
2.623754625e-68
3.9402837e-68
7.558793182e-68
2.285673131e-67
1.20164999e-66
9.073739077e-66
8.28013163e-65
8.855329669e-64
1.151375907e-62
2.000343225e-61
4.688251223e-60
1.366412417e-58
4.671423076e-57
1.592834653e-55
5.410908912e-54
1.582555766e-52
4.396102765e-51
1.107262844e-49
1.990805121e-48
2.176238451e-47
2.101100733e-46
5.260795115e-45
3.375494679e-43
7.606764556e-42
8.016072226e-41
0
3.228517609e-31
1.468173165e-32
1.919122872e-30
1.039658093e-28
4.249104204e-29
2.866202232e-30
1.131015802e-31
2.784020641e-33
0
0.0006761452031
0.01953244396
0.08031442647
2.873803307e-64
3.008566658e-64
3.896774727e-64
6.165773337e-64
1.390761502e-63
5.494856823e-63
3.451694353e-62
2.730276664e-61
2.482391037e-60
2.614738974e-59
3.392030703e-58
6.034266635e-57
1.427169777e-55
4.228451101e-54
1.438977593e-52
4.913368051e-51
1.659756938e-49
4.728804071e-48
1.310574349e-46
3.162877125e-45
5.495173765e-44
5.749300403e-43
5.732760516e-42
1.605705021e-40
1.051914308e-38
2.109999579e-37
2.070738696e-36
3.163558196e-34
5.611173509e-30
1.693050534e-30
3.957865101e-26
4.123680173e-25
1.765593847e-25
1.29129558e-26
2.020923039e-28
2.573791259e-30
1.490425891e-50
0.00068492015
0.01990178689
0.0809427278
4.219895212e-60
4.41832878e-60
5.901423936e-60
1.041187444e-59
2.983877791e-59
1.481025967e-58
1.009376733e-57
7.989809849e-57
7.120917014e-56
7.341869134e-55
9.54976848e-54
1.740412338e-52
4.134808512e-51
1.248786755e-49
4.192375625e-48
1.446886621e-46
4.793547608e-45
1.338459866e-43
3.67607606e-42
8.444657607e-41
1.427509619e-39
1.422201068e-38
1.479343143e-37
4.712178541e-36
3.052113232e-34
5.500445022e-33
5.838743613e-32
7.116082639e-32
2.840260092e-45
1.472911181e-24
1.938268037e-22
1.910347775e-22
7.829921991e-23
7.473812015e-24
1.223944053e-25
8.178501793e-28
3.701743543e-49
0.0006833645511
0.02023276162
0.08154753443
6.342440216e-56
6.705983345e-56
9.582092356e-56
2.027640506e-55
7.456237708e-55
4.210659629e-54
2.910489151e-53
2.251928514e-52
1.947922376e-51
1.960945285e-50
2.577276006e-49
4.793814785e-48
1.14242005e-46
3.51555619e-45
1.156643867e-43
4.067046013e-42
1.299848823e-40
3.595204809e-39
9.650614998e-38
2.113054474e-36
3.484769097e-35
3.280873416e-34
3.599230865e-33
1.335749059e-31
8.191440879e-30
1.363563127e-28
1.421246389e-27
2.614857143e-27
1.584918255e-32
5.413920405e-20
2.269050144e-19
3.408677298e-20
2.946243279e-20
3.764425376e-20
6.443000445e-21
1.289602581e-22
7.986776941e-42
0.0006705776406
0.02051839412
0.08212142711
1.014814796e-51
1.10481309e-51
1.777274525e-51
4.686095952e-51
2.050379945e-50
1.205049528e-49
8.150467961e-49
6.086915415e-48
5.071911826e-47
4.99261328e-46
6.6876953e-45
1.258664442e-43
3.01964097e-42
9.408572215e-41
3.033025215e-39
1.088158751e-37
3.308183989e-36
9.163131602e-35
2.356996872e-33
4.980567613e-32
7.957372678e-31
7.023583065e-30
8.236592095e-29
3.649195322e-27
2.022380512e-25
3.255774261e-24
3.306855647e-23
5.859784908e-23
0
4.723643384e-17
2.916816682e-17
1.079777279e-17
1.7449369e-15
2.543994158e-15
4.902279552e-16
1.227539112e-17
0
0.0006630849427
0.0207328492
0.08265372959
1.814178548e-47
2.087970722e-47
3.91594091e-47
1.237791905e-46
5.841152413e-46
3.388648817e-45
2.203659302e-44
1.574512247e-43
1.255950132e-42
1.216766748e-41
1.6718244e-40
3.14499175e-39
7.661970138e-38
2.384208133e-36
7.604275793e-35
2.755867361e-33
7.930773361e-32
2.208391976e-30
5.324428814e-29
1.111434468e-27
1.686339913e-26
1.388226896e-25
1.77192123e-24
9.506827562e-23
4.575215693e-21
7.549519877e-20
7.10598527e-19
1.220033898e-18
9.95713818e-33