/*--------------------------------*- C++ -*----------------------------------*\
| =========                 |                                                 |
| \\      /  F ield         | OpenFOAM: The Open Source CFD Toolbox           |
|  \\    /   O peration     | Version:  v1912                                 |
|   \\  /    A nd           | Website:  www.openfoam.com                      |
|    \\/     M anipulation  |                                                 |
\*---------------------------------------------------------------------------*/
FoamFile
{
    version     2.0;
    format      ascii;
    class       volScalarField;
    location    "0.7";
    object      alpha.gas_0;
}
// * * * * * * * * * * * * * * * * * * * * * * * * * * * * * * * * * * * * * //

dimensions      [0 0 0 0 0 0 0];


internalField   nonuniform List<scalar> 
4800
(
2.820530794e-175
1.336258945e-175
9.837247602e-176
8.523539124e-176
8.001043751e-176
8.140606102e-176
8.758178579e-176
9.852384606e-176
1.151831364e-175
1.393911703e-175
1.738630148e-175
2.226823449e-175
2.358815144e-175
1.607820873e-170
2.057570834e-170
1.290227575e-170
1.470236903e-170
2.687241302e-167
6.47306209e-164
1.377439315e-160
2.464179784e-157
4.456383084e-154
2.122457511e-151
1.070143938e-148
1.174049888e-149
6.576977488e-136
1.386855506e-136
5.984939368e-138
2.31091222e-108
1.171832086e-106
3.36690108e-122
3.392599322e-80
3.725426913e-79
3.749742027e-79
3.064328306e-64
8.69351165e-82
8.65601711e-52
1.425169735e-70
4.82875056e-05
0.01054385365
9.738777564e-173
4.540058053e-173
3.324761397e-173
2.868934772e-173
2.684583816e-173
2.720069206e-173
2.912853298e-173
3.260088907e-173
3.790133601e-173
4.558747263e-173
5.648530346e-173
7.183557354e-173
7.688578205e-173
4.268732753e-168
5.852612792e-168
3.764178707e-168
2.242341032e-168
2.033405091e-165
4.470348919e-162
8.171517891e-159
1.059178044e-155
1.454644102e-152
2.950718188e-150
1.594981162e-147
1.166307066e-149
2.085171172e-134
1.333398338e-133
5.666369099e-147
0
8.658433921e-103
0
8.817643244e-79
1.937651326e-96
1.255349982e-64
1.267060022e-62
8.700547236e-82
4.441034136e-50
7.525154558e-69
0.0001873389349
0.01513509708
1.581910464e-170
7.298903154e-171
5.319427437e-171
4.57119779e-171
4.263352975e-171
4.300915653e-171
4.583208769e-171
5.101909085e-171
5.896345547e-171
7.046023526e-171
8.668643675e-171
1.09410071e-170
1.18086315e-170
5.273547886e-166
7.799142918e-166
5.138394941e-166
2.300772334e-166
7.310142787e-164
1.52243355e-160
2.515833335e-157
2.292580923e-154
1.912543133e-151
9.941856181e-150
3.225448005e-146
1.538507933e-146
4.112289509e-150
1.809904602e-128
7.144473598e-129
1.002418462e-148
4.929121717e-99
0
3.923106834e-77
2.618090622e-96
4.409347126e-61
6.770259946e-60
0
9.13808334e-48
1.442476514e-66
0.0004179534629
0.02051684955
1.645346359e-168
7.529299569e-169
5.462586025e-169
4.674855564e-169
4.345251554e-169
4.364000962e-169
4.627098755e-169
5.122252098e-169
5.883917399e-169
6.984264682e-169
8.530145704e-169
1.068241322e-168
1.160818912e-168
4.111890561e-164
6.619356923e-164
4.466776046e-164
1.827391077e-164
1.651179499e-162
3.350464708e-159
5.300136783e-156
3.663807923e-153
1.297268668e-150
4.322540027e-151
3.058297271e-142
3.075170998e-143
1.274814645e-160
7.697600904e-124
2.368727377e-124
0
3.378385377e-96
0
6.444967262e-76
0
1.658255514e-58
8.811726029e-58
0
6.550844707e-46
1.904842807e-73
0.0007167956876
0.02555343398
1.236957541e-166
5.619520035e-167
4.059341074e-167
3.459644968e-167
3.204581258e-167
3.203807308e-167
3.379593533e-167
3.720147402e-167
4.246893013e-167
5.006843486e-167
6.069691427e-167
7.540868314e-167
8.237760971e-167
2.278941335e-162
4.035265063e-162
2.788326861e-162
1.117762589e-162
2.588248789e-161
5.165988196e-158
8.126036444e-155
4.77345502e-152
4.529363519e-150
4.321405573e-151
3.659602431e-140
4.641560631e-141
0
7.838589758e-121
2.012174689e-121
8.721153866e-141
2.575943277e-93
0
5.36960213e-75
1.514574518e-94
1.655397363e-56
3.860648413e-56
0
1.446388109e-44
5.733273451e-70
0.001079430116
0.02995043802
7.172861869e-165
3.236795024e-165
2.328231086e-165
1.976089095e-165
1.823931238e-165
1.815087217e-165
1.904730707e-165
2.084648983e-165
2.364864917e-165
2.7687961e-165
3.331259703e-165
4.105365695e-165
4.501683092e-165
9.560160041e-161
1.884252358e-160
1.332649012e-160
5.343931799e-161
3.029887314e-160
5.794966084e-157
9.241078395e-154
4.9353128e-151
6.827522943e-150
6.607004142e-149
9.821401815e-140
6.051907718e-140
0
4.255646474e-119
1.381638575e-119
0
3.456806248e-90
0
2.49332925e-74
3.026109769e-94
5.199830428e-55
6.57937078e-55
0
9.591031655e-44
7.139534062e-67
0.00136765764
0.03385768895
3.339559832e-163
1.497336741e-163
1.072515228e-163
9.065298568e-164
8.337085166e-164
8.2578366e-164
8.6199555e-164
9.379271321e-164
1.057213001e-163
1.229120137e-163
1.467502032e-163
1.793752423e-163
1.971338975e-163
3.15238689e-159
7.010334746e-159
5.071362014e-159
2.045816212e-159
3.036702737e-159
4.840289861e-156
7.895402744e-153
3.894183357e-150
3.274510939e-150
9.215896561e-148
1.511028435e-147
2.440829497e-136
3.796357656e-162
2.427454421e-118
1.756765732e-117
2.802379097e-136
8.37681529e-88
2.890451448e-106
6.585775883e-74
0
4.41485763e-54
5.077243843e-54
3.957290173e-73
1.073224626e-43
2.092697326e-65
0.001755904784
0.03729927564
1.28237158e-161
5.713721506e-162
4.075470138e-162
3.430386802e-162
3.143190116e-162
3.09851021e-162
3.217046406e-162
3.479728451e-162
3.896860422e-162
4.498298602e-162
5.32908604e-162
6.459977094e-162
7.104661255e-162
8.370637631e-158
2.133073971e-157
1.576771051e-157
6.409861448e-158
3.548893925e-158
3.062918076e-155
5.123213425e-152
2.313250124e-149
1.242817022e-149
6.053293047e-147
4.793663819e-157
2.41033363e-133
2.525126943e-133
0
4.22441692e-113
3.136981957e-132
5.292549042e-86
1.852580883e-104
1.316843432e-73
4.3474407e-94
1.035624528e-53
1.605832946e-53
8.069653267e-72
1.071494207e-43
2.126721526e-64
0.002293396149
0.04031650447
4.13888261e-160
1.832687222e-160
1.301696975e-160
1.091050433e-160
9.959308123e-161
9.770244449e-161
1.0088696e-160
1.084682377e-160
1.206704131e-160
1.382889856e-160
1.625418175e-160
1.953855806e-160
2.147109306e-160
1.818268779e-156
5.404472958e-156
4.076510664e-156
1.671468795e-156
5.997097618e-157
1.495337412e-154
2.539615455e-151
1.037142811e-148
4.204155646e-149
4.234588486e-146
4.705126934e-157
3.712369883e-131
4.664136121e-131
4.554876918e-150
9.286736499e-109
0
1.519356198e-84
0
4.059466358e-73
0
1.30991624e-53
1.624577068e-53
6.112413554e-75
1.069495333e-43
3.735198927e-67
0.002854900316
0.04299670662
1.138296079e-158
5.009026796e-159
3.542539619e-159
2.956622393e-159
2.688398492e-159
2.624356746e-159
2.694835987e-159
2.879583805e-159
3.182029179e-159
3.61986081e-159
4.22079202e-159
5.030658365e-159
5.51530838e-159
3.263020386e-155
1.154538259e-154
8.869712212e-155
3.671678918e-155
1.168637996e-155
5.860343945e-154
9.592736939e-151
3.557647304e-148
7.974331279e-149
2.132305311e-144
4.541355388e-157
1.663043444e-129
1.844802812e-129
1.497500006e-148
1.449840446e-104
2.603029371e-123
2.895581525e-83
0
9.343437211e-73
3.909189573e-92
1.333056853e-53
1.62383859e-53
4.96469612e-73
1.068499752e-43
0
0.003417494847
0.04539910431
2.694677951e-157
1.178320782e-157
8.297200409e-158
6.894918218e-158
6.244414938e-158
6.064947797e-158
6.192480485e-158
6.575594814e-158
7.216489914e-158
8.148094201e-158
9.42391343e-158
1.113573882e-157
1.216131369e-157
4.863316388e-154
2.09678143e-153
1.636921976e-153
6.849757305e-154
2.115974992e-154
2.100116604e-153
2.722232374e-150
9.751653308e-148
8.869696974e-149
7.445937531e-143
4.721036854e-157
2.876527415e-128
2.96294067e-128
3.258068214e-147
2.314598979e-101
0
2.207117763e-82
1.204993306e-101
9.372377737e-73
0
1.34666857e-53
1.490211543e-53
0
1.005506557e-43
0
0.003962741972
0.04758196699
5.531450677e-156
2.403232784e-156
1.684722891e-156
1.393817396e-156
1.257126362e-156
1.214691726e-156
1.233023564e-156
1.300911844e-156
1.417703497e-156
1.58851231e-156
1.822148012e-156
2.134427584e-156
2.318420158e-156
6.027300349e-153
3.25115549e-152
2.57291383e-152
1.090178168e-152
3.343560846e-153
9.267995869e-153
5.633014305e-150
2.212476425e-147
9.092856061e-149
8.110451478e-142
4.584942153e-157
2.118263686e-127
2.432514941e-127
1.705859582e-146
5.480963868e-99
0
3.279086529e-82
9.029200716e-101
9.368736918e-73
3.374572482e-91
1.343363563e-53
9.000534924e-72
1.25658069e-47
5.733227441e-45
2.555835806e-25
0.004501868927
0.04958729526
9.897583065e-155
4.271748376e-155
2.980936323e-155
2.455081596e-155
2.204892207e-155
2.119149402e-155
2.13826479e-155
2.241105434e-155
2.424723192e-155
2.695657879e-155
3.066316392e-155
3.560250745e-155
3.840362642e-155
6.193267435e-152
4.302982906e-151
3.444266709e-151
1.481305635e-151
4.552764542e-152
5.854786863e-152
8.097712304e-150
2.821469213e-147
9.28347445e-149
1.558350214e-141
4.763281371e-157
7.27006426e-127
1.023225017e-126
0
3.258919634e-97
5.199483024e-116
3.279810055e-82
8.424936565e-101
9.359991797e-73
7.410105352e-92
1.249513094e-53
0
4.552274278e-47
6.340909799e-66
1.416600762e-06
0.005035377111
0.05144723299
1.549124924e-153
6.640190265e-154
4.61192934e-154
3.780740593e-154
3.380430964e-154
3.23110924e-154
3.240062967e-154
3.372683446e-154
3.621894513e-154
3.994370901e-154
4.505071103e-154
5.184353756e-154
5.544861412e-154
5.23489152e-151
4.837922377e-150
3.905319715e-150
1.711538634e-150
5.311071345e-151
4.218784166e-151
7.821155184e-150
3.736941496e-147
1.004183837e-148
1.559333131e-141
4.601342542e-157
1.34143569e-126
2.104892833e-126
0
8.260096661e-96
2.66697228e-115
3.275683908e-82
0
9.354356099e-73
8.417416457e-92
8.88831187e-54
0
4.598827475e-47
4.223350013e-66
5.323258937e-06
0.005564282469
0.05318508909
2.124892397e-152
9.043117745e-153
6.250291377e-153
5.099186259e-153
4.538076547e-153
4.312677843e-153
4.296645545e-153
4.440617887e-153
4.732001465e-153
5.175787956e-153
5.78735346e-153
6.600481925e-153
6.988215952e-153
3.586395862e-150
4.59820967e-149
3.706209787e-149
1.664911745e-149
5.25887712e-150
2.919597092e-150
6.484271607e-150
1.851468462e-146
5.562099657e-147
1.505166318e-141
9.062686701e-147
1.593028364e-126
2.552414799e-126
6.409814928e-145
1.145728197e-94
1.036423539e-113
3.275111303e-82
7.868882762e-101
8.520374856e-73
1.222517787e-91
3.765542598e-54
6.736725125e-73
4.60132155e-47
0
1.162992852e-05
0.006089484258
0.05481573822
2.555271571e-151
1.079252904e-151
7.421239196e-152
6.023807084e-152
5.33431426e-152
5.038458079e-152
4.985448867e-152
5.113924375e-152
5.405908555e-152
5.863195339e-152
6.498965601e-152
7.345324653e-152
7.684078606e-152
1.939892663e-149
3.754497559e-148
2.919586853e-148
1.342025661e-148
4.349475609e-149
1.852395048e-149
1.421316035e-150
8.412238379e-143
9.88587556e-144
8.608503272e-157
1.564354781e-128
4.061243136e-126
2.634653664e-126
0
6.289672212e-94
3.014247603e-113
3.273282277e-82
6.245275862e-101
5.273526029e-73
3.969464383e-92
7.157923735e-55
9.302594024e-74
3.080429342e-47
3.192327664e-66
1.989694469e-05
0.006613292285
0.05634775973
2.690193792e-150
1.126908199e-150
7.706164899e-151
6.220866592e-151
5.478905919e-151
5.141050712e-151
5.050000911e-151
5.139302451e-151
5.387675756e-151
5.793189485e-151
6.364512483e-151
7.127186337e-151
7.349895718e-151
7.892446444e-149
2.874522456e-147
2.044082027e-147
8.84732557e-148
2.936466275e-148
1.048418299e-148
1.822417077e-155
6.37629865e-138
6.087908024e-139
7.470202149e-157
3.148164669e-126
9.059693239e-124
4.882091592e-125
0
8.622466446e-94
1.907947139e-112
2.658188394e-82
4.064281347e-101
1.654385847e-73
3.205290417e-92
4.363670081e-56
1.174425847e-74
8.445022512e-48
1.105443006e-66
2.974674716e-05
0.007137821377
0.057788058
2.470343195e-149
1.025213531e-149
6.967593738e-150
5.590479962e-150
4.893826627e-150
4.559144714e-150
4.443567556e-150
4.484451366e-150
4.660437643e-150
4.966561896e-150
5.405876513e-150
5.995281391e-150
6.075973941e-150
2.176879013e-148
2.549031375e-146
1.832886246e-146
4.92730124e-147
1.601473991e-147
5.070255369e-148
1.1796223e-159
4.772178977e-133
3.254847649e-134
0
1.168683172e-124
1.063340057e-122
3.790887567e-121
0
8.617624163e-94
7.49462031e-113
1.457280613e-82
2.047860113e-101
1.880882854e-74
1.213755724e-92
5.932982515e-58
1.002904675e-74
6.232782873e-49
5.917524267e-72
4.102256869e-05
0.00766262544
0.05914428889
1.964557273e-148
8.06445723e-149
5.442057935e-149
4.336270816e-149
3.769623971e-149
3.483871169e-149
3.366708324e-149
3.366847951e-149
3.465952312e-149
3.65827913e-149
3.942470078e-149
4.328451213e-149
4.293683113e-149
2.875429748e-148
4.554896642e-144
7.121006631e-145
2.859876304e-146
8.485889437e-147
2.047097879e-147
6.630623592e-164
3.493533559e-128
1.48483872e-129
0
1.973766053e-123
2.936053126e-140
3.872455539e-116
2.859236031e-135
8.616303321e-94
1.141609841e-112
5.540397469e-83
1.148057542e-101
4.617676499e-76
4.069062855e-91
1.253545221e-60
1.188025703e-74
8.062137554e-51
1.032324162e-78
5.365708233e-05
0.008187387427
0.06042511599
1.337647618e-147
5.420601738e-148
3.627727279e-148
2.867158052e-148
2.47191972e-148
2.263129974e-148
2.165038091e-148
2.141641466e-148
2.180287452e-148
2.278737071e-148
2.434162469e-148
2.65017668e-148
2.558622888e-148
1.456208907e-153
2.021664099e-139
2.785022534e-140
2.122863277e-142
1.257037253e-145
8.872699406e-147
1.151175579e-165
1.077489402e-124
3.927046473e-126
0
3.634452725e-121
0
3.433453562e-111
0
8.613371134e-94
0
2.388745554e-83
1.112943646e-84
0
1.933236138e-66
4.463110843e-68
3.581997711e-56
1.248202561e-53
9.446553483e-77
6.769158454e-05
0.008711809093
0.06163911174
7.697426617e-147
3.072681608e-147
2.035445365e-147
1.591861849e-147
1.357101506e-147
1.226550447e-147
1.156967384e-147
1.128079634e-147
1.135685923e-147
1.185454567e-147
1.27158712e-147
1.382793718e-147
1.283992183e-147
4.520256394e-155
2.604381808e-135
1.935989398e-136
7.883585081e-139
3.69139372e-142
1.081629979e-145
8.062188004e-165
1.018860242e-122
6.713144053e-124
0
3.07477634e-119
1.047965508e-137
1.124068929e-107
0
7.511385837e-94
0
5.44064355e-83
2.099446431e-83
9.724768007e-99
1.94570825e-66
4.847695413e-68
3.670703997e-56
3.445909343e-56
2.463522358e-76
8.314203716e-05
0.009235888243
0.06279461271
3.759930477e-146
1.470194295e-146
9.586361767e-147
7.371576841e-147
6.168706649e-147
5.459972018e-147
5.044566127e-147
4.866899476e-147
4.991133083e-147
5.525456982e-147
6.208491604e-147
6.702736142e-147
5.778562778e-147
4.583947047e-155
1.514359865e-132
7.809535609e-134
2.423153458e-136
1.386220041e-139
4.592119219e-143
0
5.787828718e-122
1.608320439e-121
7.128129633e-122
1.349973528e-118
1.157295507e-123
9.915042723e-106
0
4.261881804e-94
1.109404529e-112
6.96128142e-83
1.840716385e-79
4.783093828e-98
1.011003774e-66
1.639352009e-88
2.756511591e-56
9.850229389e-57
1.086864806e-78
9.993353476e-05
0.009759402875
0.06389949205
1.695578184e-145
6.331378918e-146
4.002419738e-146
2.985884251e-146
2.422129624e-146
2.086456184e-146
1.928279842e-146
2.043142966e-146
2.591374784e-146
3.533271067e-146
4.032689361e-146
3.934545879e-146
2.959506807e-146
1.308376762e-152
4.977525405e-131
3.447744461e-132
1.812950746e-134
4.37296141e-137
1.212429776e-139
1.378276735e-136
1.896441051e-140
7.500038229e-117
2.561694845e-117
6.827456953e-121
1.765876189e-107
4.336361716e-105
6.763996625e-110
1.24945878e-94
1.414827773e-95
1.843456571e-101
2.865584389e-75
3.401440332e-94
1.387510412e-67
1.071435192e-86
6.543356933e-57
1.829128007e-57
3.578578164e-80
0.0001184729222
0.01028253663
0.06496020885
9.202972332e-145
3.151498888e-145
1.913403804e-145
1.382105878e-145
1.112483839e-145
1.025450486e-145
1.221288441e-145
2.145616935e-145
4.865005184e-145
1.303780188e-144
3.904642875e-144
1.284897882e-143
6.012182256e-146
2.281924814e-139
1.386633716e-130
8.032777725e-131
2.037904836e-131
8.877853296e-133
3.977211246e-135
6.352210564e-133
4.190032187e-152
2.540082812e-113
6.620840698e-114
8.194048014e-127
8.4507835e-105
3.463576534e-118
1.82809188e-94
9.002944176e-96
2.082175067e-92
0
1.467562903e-72
0
3.182830476e-69
1.342754482e-88
2.936031388e-58
9.086018017e-59
2.194448656e-77
0.000138917462
0.01080522331
0.06598071923
2.751393759e-142
2.935456467e-142
3.729909426e-142
5.322752248e-142
8.523978661e-142
1.547422982e-141
3.149349172e-141
7.12422819e-141
1.784961767e-140
4.928922075e-140
1.493374856e-139
4.956657054e-139
1.834071798e-138
7.483396626e-138
3.146476051e-148
1.349537869e-126
5.240851868e-127
1.978647912e-128
1.111674321e-130
2.752635298e-127
2.803775606e-149
3.90704276e-111
8.662202677e-112
3.972569641e-109
1.036850778e-103
1.572695389e-118
8.638188227e-92
8.659086701e-96
8.654852789e-88
5.218577408e-107
4.211981734e-71
7.243286201e-72
1.103350804e-71
0
2.257889307e-60
1.095656125e-60
0
0.0001611603932
0.01132714618
0.06696295767
9.411525511e-138
1.004315744e-137
1.277363907e-137
1.826316979e-137
2.933507499e-137
5.347818965e-137
1.094005433e-136
2.490202485e-136
6.285797934e-136
1.751137969e-135
5.364028843e-135
1.811048435e-134
6.980559098e-134
3.964679751e-133
0
1.689551591e-122
4.91258702e-123
1.268804405e-124
4.759718037e-126
7.818241289e-125
0
4.368441307e-110
6.587471136e-111
1.343371847e-107
1.63204092e-105
0
1.023576439e-90
2.171340397e-87
1.700860661e-83
2.696721249e-109
1.356670864e-70
2.135810225e-69
3.28329475e-68
3.228785481e-89
4.743140474e-58
2.318646206e-58
5.961487405e-78
0.0001859788234
0.01184705202
0.06790965662
3.026387044e-133
3.230853635e-133
4.113213735e-133
5.891877078e-133
9.491937948e-133
1.737632816e-132
3.572926176e-132
8.183570303e-132
2.081378006e-131
5.852067332e-131
1.814947153e-130
6.274156322e-130
2.603698149e-129
1.848908995e-128
0
1.592329262e-119
3.976963976e-120
1.314773037e-121
3.096277281e-121
7.9644856e-125
9.198963477e-116
5.87685156e-110
3.040085116e-112
9.021126914e-103
1.58115441e-121
1.594864455e-92
9.583355556e-109
8.586610455e-82
1.831833405e-80
3.716568317e-81
0
1.026290415e-64
5.698345344e-64
3.141832156e-83
5.608696543e-56
2.09479023e-56
5.665576735e-75
0.0002125408332
0.01236508264
0.0688256507
9.160374058e-129
9.783101649e-129
1.246641564e-128
1.788961065e-128
2.890473934e-128
5.313362472e-128
1.098104981e-127
2.53086778e-127
6.48678996e-127
1.841956568e-126
5.800553896e-126
2.079722823e-125
9.761894363e-125
9.141237398e-124
7.730193298e-136
2.091509655e-117
6.864682596e-118
7.155962669e-118
2.054802861e-116
5.98377133e-115
6.834760748e-114
1.549480941e-110
3.216568928e-112
8.094360378e-100
1.104135698e-118
1.189628092e-88
0
1.039937147e-77
2.437735616e-78
4.80215349e-79
2.248002537e-97
4.7875164e-61
5.761922086e-61
6.001272006e-80
1.06510194e-54
3.389282284e-55
5.881086158e-75
0.0002407698992
0.01288121672
0.06971548611
2.612475917e-124
2.791054342e-124
3.559666828e-124
5.117103116e-124
8.291388278e-124
1.530380502e-123
3.178766438e-123
7.372190855e-123
1.904741422e-122
5.469676131e-122
1.759252467e-121
6.70384251e-121
3.810980803e-120
4.765639857e-119
1.058491683e-117
1.349507093e-115
1.356017847e-114
4.347628768e-113
1.322040738e-111
3.801996362e-110
9.76557934e-109
1.528168022e-110
1.814686503e-103
1.493537845e-98
1.643659686e-105
2.15909342e-86
0
2.457435618e-75
1.888671841e-76
1.703662813e-77
0
9.645173409e-59
4.181987541e-59
0
4.529738559e-54
2.068317283e-54
1.432561377e-73
0.0002704793368
0.01339560787
0.07058342227
7.026675945e-120
7.509190189e-120
9.584678769e-120
1.380092213e-119
2.242354016e-119
4.155402941e-119
8.674154801e-119
2.024426639e-118
5.275763125e-118
1.536409752e-117
5.107109497e-117
2.158470162e-116
1.5911147e-115
2.58526073e-114
7.025101561e-113
2.330933711e-111
8.102920234e-110
2.660114979e-108
8.05528317e-107
2.311193595e-105
5.79969511e-104
1.063678105e-102
1.110578851e-101
1.358363056e-115
1.357741833e-90
1.654639758e-85
1.246606991e-92
2.300626718e-74
4.217219421e-73
8.424655303e-74
0
1.26974138e-57
2.894925562e-58
4.739434583e-57
5.419223058e-54
3.065314426e-52
0
0.0003015011579
0.01390865206
0.0714337858
1.784069701e-115
1.906978176e-115
2.435742531e-115
3.512592544e-115
5.722209649e-115
1.064548344e-114
2.233083604e-114
5.245657411e-114
1.380731878e-113
4.102001105e-113
1.441850089e-112
7.198494329e-112
7.107078033e-111
1.397966076e-109
4.033566361e-108
1.357543894e-106
4.731791075e-105
1.540459707e-103
4.652401272e-102
1.330120439e-100
3.299632431e-99
5.869865273e-98
7.471667457e-97
6.457846697e-116
9.886560375e-89
1.800250557e-104
9.278494261e-79
1.951301161e-92
4.049934642e-68
3.324095801e-69
1.785108552e-70
1.695490104e-57
2.880145708e-58
2.699395551e-54
2.126408401e-54
2.77969627e-48
0
0.0003334119253
0.01442030584
0.07227049001
4.280108331e-111
4.575395697e-111
5.847388229e-111
8.444280067e-111
1.379028453e-110
2.575234313e-110
5.428395871e-110
1.284163645e-109
3.424131336e-109
1.050565639e-108
4.067706379e-108
2.569667576e-107
3.310736557e-106
7.363990315e-105
2.20494377e-103
7.507477087e-102
2.615811806e-100
8.448097893e-99
2.547394328e-97
7.246871116e-96
1.776541098e-94
3.065733138e-93
3.729192633e-92
0
9.806326551e-85
0
1.053048545e-73
0
3.568750613e-63
2.099998251e-64
1.7099717e-70
1.444976607e-57
2.408198692e-55
6.929599238e-53
2.152732341e-54
3.530093924e-45
0
0.0003658677345
0.01492978003
0.07309480732
9.712142651e-107
1.038160862e-106
1.327335003e-106
1.919162678e-106
3.141376617e-106
5.887840654e-106
1.247324666e-105
2.975633992e-105
8.090546691e-105
2.626433286e-104
1.191267374e-103
9.900361824e-103
1.555926604e-101
3.733469505e-100
1.145477356e-98
3.938822676e-97
1.368779276e-95
4.390912355e-94
1.322050928e-92
3.737619648e-91
9.049081278e-90
1.510296369e-88
1.737015618e-87
0
2.115255911e-82
5.640905548e-102
8.006302134e-70
9.404780471e-89
2.766637963e-58
1.193647152e-59
1.441680877e-62
2.952828069e-77
2.358977581e-53
6.005427969e-52
2.126408401e-54
8.380415059e-43
1.631023902e-61
0.0003988929968
0.01543595343
0.07390356604
2.086714035e-102
2.230038385e-102
2.851906959e-102
4.127734465e-102
6.770690216e-102
1.273607885e-101
2.713029535e-101
6.548613543e-101
1.841214863e-100
6.605303288e-100
3.75404021e-99
4.025892148e-98
7.186636711e-97
1.810136386e-95
5.650897376e-94
1.960553522e-92
6.77959794e-91
2.16445031e-89
6.499963135e-88
1.824931548e-86
4.35818928e-85
7.010058812e-84
7.587422407e-83
9.745670525e-82
1.821545399e-81
4.828607198e-100
1.335648493e-67
1.525270409e-86
8.708267371e-55
3.965695907e-56
7.322664859e-59
0
2.145570517e-52
2.782539529e-51
2.152732333e-54
5.419204259e-41
2.896221762e-60
0.0004362129655
0.01593288678
0.07469299475
4.250459044e-98
4.540368365e-98
5.806756625e-98
8.411232298e-98
1.382333276e-97
2.609973474e-97
5.599011916e-97
1.37801036e-96
4.121210801e-96
1.74232942e-95
1.286156677e-94
1.66731259e-93
3.210848897e-92
8.365150228e-91
2.646927815e-89
9.256732408e-88
3.179137603e-86
1.012409944e-84
3.025403748e-83
8.436398951e-82
1.982732177e-80
3.061878529e-79
3.198962821e-78
4.201558496e-77
1.829119298e-81
3.531720349e-71
9.394961844e-67
2.317044224e-83
8.503121429e-53
8.158934463e-54
1.419208069e-55
1.931978713e-70
4.705084789e-52
2.176562353e-50
2.126408401e-54
1.291636178e-39
1.427472006e-59
0.0004738502271
0.01642216826
0.07546260444
8.220084318e-94
8.774296544e-94
1.121944982e-93
1.626096333e-93
2.677214774e-93
5.076888653e-93
1.101130779e-92
2.810928137e-92
9.403808645e-92
5.001689026e-91
4.680314284e-90
6.822217822e-89
1.376194896e-87
3.678227721e-86
1.177565815e-84
4.14407066e-83
1.412143296e-81
4.493921411e-80
1.332201644e-78
3.692811083e-77
8.509273234e-76
1.257320774e-74
1.271510111e-73
1.715160705e-72
8.029559038e-71
3.492231631e-69
1.153061358e-67
4.769383186e-73
5.033600413e-52
8.977854514e-51
4.238500441e-51
6.144558357e-52
4.742646657e-52
5.623815479e-48
2.152732331e-54
1.2653923e-38
5.40098207e-58
0.0005109513484
0.01690283126
0.07621278334
1.512026292e-89
1.61217546e-89
2.060493782e-89
2.987478392e-89
4.928169651e-89
9.40405135e-89
2.081918786e-88
5.708489742e-88
2.292749996e-87
1.571919643e-86
1.741088436e-85
2.705594903e-84
5.637004477e-83
1.537385003e-81
4.978004998e-80
1.75803743e-78
5.946917249e-77
1.892152307e-75
5.547235155e-74
1.530263578e-72
3.439340951e-71
4.84988263e-70
4.7680535e-69
6.999451906e-68
3.502523656e-66
1.521351956e-64
5.560928398e-79
7.393128261e-55
0
5.623393111e-46
1.787714699e-46
1.702974386e-47
2.345331246e-49
3.847110595e-46
2.126354901e-54
4.930657629e-38
0
0.0005467973209
0.01737390516
0.07694385557
2.651112967e-85
2.822217636e-85
3.604367273e-85
5.2274353e-85
8.64714536e-85
1.668797718e-84
3.853680146e-84
1.206427368e-83
6.183758753e-83
5.250940009e-82
6.408804796e-81
1.029587849e-79
2.203046778e-78
6.10511579e-77
2.00056057e-75
7.062980413e-74
2.37703028e-72
7.548950603e-71
2.184175402e-69
5.999084665e-68
1.306927526e-66
1.756493473e-65
1.689902908e-64
2.737544781e-63
1.454617387e-61
5.638224682e-60
0
5.23610807e-51
7.045715496e-70
3.130592108e-41
6.851103702e-42
3.28186147e-43
3.918299292e-45
8.964930527e-45
2.152732338e-54
7.858511713e-38
5.451521455e-60
0.000580515119
0.01783431454
0.07765623592
4.442730371e-81
4.719179975e-81
6.021319035e-81
8.738152974e-81
1.453243606e-80
2.871914479e-80
7.231618896e-80
2.795218755e-79
1.83503222e-78
1.788829233e-77
2.286693504e-76
3.743062058e-75
8.208806021e-74
2.303334273e-72
7.644680767e-71
2.686178824e-69
9.027813671e-68
2.849384435e-66
8.135527415e-65
2.22177236e-63
4.66170161e-62
5.973103435e-61
5.672264691e-60
1.022356246e-58
5.727133077e-57
1.9547189e-55
2.838160947e-68
8.251070762e-49
0
1.784721072e-37
2.970196765e-38
9.510149633e-40
1.458946599e-41
4.826486881e-43
2.126301395e-54
7.914978252e-38
0
0.0006111636896
0.01828269399
0.07835057788
7.140130293e-77
7.562718176e-77
9.640490374e-77
1.401846611e-76
2.360452071e-76
4.914358016e-76
1.452761674e-75
7.289717167e-75
5.757848641e-74
6.016176435e-73
7.822333564e-72
1.29846493e-70
2.914456284e-69
8.259939719e-68
2.776830361e-66
9.672479738e-65
3.259990036e-63
1.015848113e-61
2.868661201e-60
7.756104061e-59
1.559248639e-57
1.907985235e-56
1.806755994e-55
3.63050121e-54
2.137625995e-52
6.350077791e-51
6.738415445e-50
5.733192599e-48
1.963141093e-52
4.518987732e-35
7.977915982e-36
5.715001632e-37
5.295249903e-38
6.043554769e-39
4.325296615e-40
7.952749062e-38
0
0.0006373672764
0.01871744301
0.07902815569
1.105478954e-72
1.16670704e-72
1.48687361e-72
2.175262208e-72
3.772918109e-72
8.755815021e-72
3.295094129e-71
2.091089724e-70
1.828733407e-69
1.958979216e-68
2.552371906e-67
4.299894152e-66
9.852407393e-65
2.818270722e-63
9.57898038e-62
3.300877671e-60
1.118953252e-58
3.41638364e-57
9.58112483e-56
2.544820117e-54
4.889930678e-53
5.728069427e-52
5.468830037e-51
1.222407269e-49
7.553438502e-48
2.018290005e-46
2.269554198e-45
3.590733831e-64
2.086447796e-34
1.160430007e-33
3.62720386e-34
3.97914709e-33
1.453231031e-33
1.334556033e-34
1.093315099e-35
3.414183182e-37
0
0.0006582634286
0.01913598229
0.07969038036
1.659217073e-68
1.743871187e-68
2.22707528e-68
3.312350464e-68
6.148969806e-68
1.7311811e-67
8.516412584e-67
6.275833056e-66
5.705777477e-65
6.112733825e-64
7.930688529e-63
1.360720505e-61
3.168779903e-60
9.161385696e-59
3.133426828e-57
1.069658686e-55
3.644865974e-54
1.08347873e-52
3.030512798e-51
7.822953808e-50
1.439041052e-48
1.616492862e-47
1.573305752e-46
3.902823315e-45
2.520087822e-43
6.013910583e-42
6.514325885e-41
0
2.477838427e-31
1.063842466e-32
1.82038979e-30
1.003386813e-28
4.00624711e-29
2.631944401e-30
1.125572305e-31
2.820613465e-33
0
0.0006756591026
0.01953284129
0.08033691156
2.43669112e-64
2.55094415e-64
3.285305269e-64
5.089890392e-64
1.084292784e-63
3.971059604e-63
2.402031237e-62
1.887853117e-61
1.720512111e-60
1.818559136e-59
2.347839445e-58
4.118811775e-57
9.691234484e-56
2.841124381e-54
9.702958149e-53
3.299863815e-51
1.123447469e-49
3.243547076e-48
9.063517574e-47
2.247153277e-45
3.980011483e-44
4.284699631e-43
4.295995131e-42
1.186180214e-40
7.895971977e-39
1.672406793e-37
1.694260812e-36
3.080855252e-34
5.851953851e-30
9.953190315e-33
3.970122236e-26
4.170337477e-25
1.746861608e-25
1.210630466e-26
1.922434394e-28
2.615062386e-30
1.499544578e-50
0.000684220192
0.01990139875
0.08096508485
3.55273293e-60
3.713504809e-60
4.896272535e-60
8.296966469e-60
2.207844137e-59
1.038899189e-58
6.992655623e-58
5.550216577e-57
4.973566863e-56
5.146656487e-55
6.636215741e-54
1.192805962e-52
2.819082142e-51
8.411744508e-50
2.840699341e-48
9.714435927e-47
3.264052871e-45
9.185931698e-44
2.55459409e-42
6.02512959e-41
1.035814445e-39
1.06430113e-38
1.110411311e-37
3.455865808e-36
2.307683515e-34
4.357580351e-33
4.689176548e-32
5.020005944e-32
9.917988212e-33
7.940622188e-25
1.812002821e-22
1.941118254e-22
7.758897211e-23
7.088582413e-24
1.135976289e-25
8.144935778e-28
3.733046912e-49
0.0006825763239
0.0202309409
0.08156841761
5.263513271e-56
5.533999999e-56
7.705613738e-56
1.535192609e-55
5.290705469e-55
2.920133721e-54
2.022210151e-53
1.57553735e-52
1.372760193e-51
1.385057272e-50
1.796473671e-49
3.302249517e-48
7.811354147e-47
2.376483654e-45
7.864159794e-44
2.73176794e-42
8.905697304e-41
2.467309235e-39
6.75210439e-38
1.510290436e-36
2.535586356e-35
2.468002232e-34
2.708091728e-33
9.716083701e-32
6.247927373e-30
1.075028496e-28
1.143086124e-27
2.134474047e-27
1.813944521e-32
3.952013865e-20
1.84933097e-19
3.145787215e-20
2.446242222e-20
3.596644092e-20
6.051887482e-21
1.17638544e-22
8.077163847e-42
0.0006695039089
0.02051461022
0.08213913971
8.209558939e-52
8.825475541e-52
1.362557746e-51
3.374154171e-51
1.424326614e-50
8.356195619e-50
5.69924426e-49
4.295743129e-48
3.609689904e-47
3.549579971e-46
4.67371711e-45
8.723782773e-44
2.067781156e-42
6.393247009e-41
2.064010927e-39
7.32655809e-38
2.277178604e-36
6.292568558e-35
1.663418885e-33
3.556127077e-32
5.817664895e-31
5.315995887e-30
6.214268114e-29
2.638857306e-27
1.557594453e-25
2.546970389e-24
2.675734158e-23
4.796487115e-23
1.951004936e-33
4.123779455e-17
2.62896071e-17
8.622339587e-18
1.417231565e-15
2.430766136e-15
4.61611816e-16
1.123590077e-17
0
0.0006628674458
0.02072557543
0.08266708059
1.41192124e-47
1.591926453e-47
2.849189375e-47
8.631421191e-47
4.036313549e-46
2.361834416e-45
1.553451734e-44
1.122299517e-43
9.031096825e-43
8.693387549e-42
1.17176428e-40
2.194316332e-39
5.249421101e-38
1.631716201e-36
5.163916544e-35
1.865438592e-33
5.466027799e-32