/*--------------------------------*- C++ -*----------------------------------*\
| =========                 |                                                 |
| \\      /  F ield         | OpenFOAM: The Open Source CFD Toolbox           |
|  \\    /   O peration     | Version:  v1912                                 |
|   \\  /    A nd           | Website:  www.openfoam.com                      |
|    \\/     M anipulation  |                                                 |
\*---------------------------------------------------------------------------*/
FoamFile
{
    version     2.0;
    format      ascii;
    class       volScalarField;
    location    "0.7";
    object      iDmdt.gasAndLiquid;
}
// * * * * * * * * * * * * * * * * * * * * * * * * * * * * * * * * * * * * * //

dimensions      [1 -3 -1 0 0 0 0];


internalField   nonuniform List<scalar> 
4800
(
1.244537391e-174
5.893925206e-175
4.335625572e-175
3.752802046e-175
3.518910895e-175
3.575053552e-175
3.839723587e-175
4.311106476e-175
5.029216879e-175
6.071740394e-175
7.553704142e-175
9.647868912e-175
1.021927978e-174
6.759369311e-170
8.721587397e-170
5.488374523e-170
5.901295149e-170
1.041739478e-166
2.501347455e-163
5.300228482e-160
9.420785086e-157
1.696728273e-153
8.026711032e-151
4.046923795e-148
4.428023636e-149
2.456663567e-135
5.246562318e-136
2.741514878e-137
8.477627186e-108
4.339229437e-106
3.906398946e-121
1.253862669e-79
1.365694617e-78
1.452263177e-78
8.915890142e-64
5.146168191e-81
-3.010427208e-51
2.466620807e-69
-0.0005921531944
0.103345354
4.89299771e-172
2.280088963e-172
1.668461263e-172
1.438279015e-172
1.344420055e-172
1.360248547e-172
1.454241773e-172
1.624543384e-172
1.884717476e-172
2.261687175e-172
2.795300035e-172
3.545349667e-172
3.793651531e-172
2.042912915e-167
2.825480531e-167
1.823780189e-167
1.056597807e-167
9.011262569e-165
1.976796832e-161
3.602136413e-158
4.634731518e-155
6.32305591e-152
1.273404536e-149
6.934552343e-147
5.032561359e-149
8.796513778e-134
5.819253462e-133
1.26234695e-134
4.692446806e-126
3.629738279e-102
0
3.691517841e-78
2.306481868e-95
5.371199121e-64
4.531297832e-62
5.662366583e-81
-6.140189274e-50
8.323887101e-68
-0.001053988828
0.1990693776
7.804151923e-170
3.599255975e-170
2.621124175e-170
2.250241592e-170
2.096504426e-170
2.112039394e-170
2.247035518e-170
2.496776301e-170
2.879688316e-170
3.433449136e-170
4.213806452e-170
5.304454469e-170
5.722553801e-170
2.477518763e-165
3.698169194e-165
2.445327767e-165
1.086242007e-165
3.190832167e-163
6.636236736e-160
1.09473953e-156
9.913173755e-154
8.182677823e-151
4.221578459e-149
1.44531192e-145
6.565834115e-146
1.697568749e-149
7.759742252e-128
3.09347029e-128
0
2.030467192e-98
0
1.620675796e-76
0
1.848317486e-60
2.509723065e-59
1.653689027e-77
-2.193977229e-48
0
-0.002062174938
0.2780387144
8.036054769e-168
3.675753677e-168
2.664776748e-168
2.278332515e-168
2.115530393e-168
2.12178972e-168
2.246183802e-168
2.482144466e-168
2.845602414e-168
3.370397468e-168
4.106623841e-168
5.129693759e-168
5.570743572e-168
1.9119808e-163
3.108363004e-163
2.105150981e-163
8.61077303e-164
7.15456728e-162
1.450161636e-158
2.292258623e-155
1.578127715e-152
5.507217202e-150
1.849823376e-150
1.333257108e-141
1.343109957e-142
0
3.231430569e-123
1.002367113e-123
2.384449359e-142
1.384804426e-95
0
2.655788161e-75
3.526042753e-95
6.89876938e-58
3.32820022e-57
2.062830305e-75
2.636751334e-46
8.328486114e-72
-0.002893068285
0.3403449914
5.977636222e-166
2.714420274e-166
1.959331677e-166
1.668324946e-166
1.54378289e-166
1.541385696e-166
1.623485899e-166
1.784008675e-166
2.032711604e-166
2.391388993e-166
2.892359871e-166
3.584549386e-166
3.912678854e-166
1.048203042e-161
1.875513814e-161
1.3006571e-161
5.225407798e-162
1.113163815e-160
2.217827383e-157
3.487560131e-154
2.043493853e-151
1.906854137e-149
1.839044107e-150
1.544785878e-139
1.967532068e-140
0
3.243845913e-120
8.37342404e-121
0
1.058454364e-92
1.399525344e-112
2.207977987e-74
9.684735727e-94
6.858891976e-56
1.471356039e-55
1.642484259e-76
1.156415847e-44
0
-0.003685069231
0.3831074246
3.429509347e-164
1.546878168e-164
1.111849386e-164
9.428308102e-165
8.693851725e-165
8.640688551e-165
9.054070648e-165
9.892803129e-165
1.12017703e-164
1.308827094e-164
1.571198917e-164
1.931685272e-164
2.116130608e-164
4.349280589e-160
8.667678101e-160
6.152368865e-160
2.474246997e-160
1.297037811e-159
2.467224545e-156
3.933968149e-153
2.096709354e-150
2.853006194e-149
2.841462091e-148
4.032304991e-139
2.502700974e-139
8.388128522e-159
1.746781796e-118
5.693943704e-119
0
1.410589213e-89
2.465113051e-108
1.023833351e-73
2.173784668e-92
2.149074365e-54
2.521190692e-54
2.595519824e-73
1.022151229e-43
8.013065342e-66
-0.003667786674
0.4139735834
1.579625679e-162
7.079213215e-163
5.067022573e-163
4.279074181e-163
3.931601111e-163
3.889429074e-163
4.054194234e-163
4.404212824e-163
4.955437946e-163
5.749821209e-163
6.850187784e-163
8.353779254e-163
9.170703252e-163
1.418355984e-158
3.191425081e-158
2.316959998e-158
9.376277841e-159
1.306505942e-158
2.043693148e-155
3.333375547e-152
1.640856659e-149
1.378710409e-149
3.876147734e-147
6.264191019e-147
9.995962014e-136
1.580801729e-161
9.903550296e-118
7.287685195e-117
0
3.392341656e-87
1.743671167e-105
2.701640914e-73
2.097220307e-92
1.819700691e-53
1.954883884e-53
0
1.329182858e-43
2.195879701e-64
-0.003964082342
0.4359309895
6.000172912e-161
2.672202506e-161
1.904658683e-161
1.601813884e-161
1.466352426e-161
1.443784665e-161
1.496950533e-161
1.616660532e-161
1.807321173e-161
2.082279485e-161
2.46172873e-161
2.977492661e-161
3.270610058e-161
3.724332872e-157
9.60942369e-157
7.128286953e-157
2.907416458e-157
1.557893246e-157
1.282764619e-154
2.145094241e-151
9.666830928e-149
5.217053847e-149
2.505436427e-146
2.020639822e-156
9.758610802e-133
1.028015648e-132
3.055904119e-136
1.741987804e-112
0
2.13076649e-85
0
5.386653251e-73
9.681684155e-92
4.278801203e-53
6.240438617e-53
0
1.491133751e-43
2.108537557e-63
-0.004055235747
0.4517888921
1.91546867e-159
8.477759337e-160
6.017240705e-160
5.039334284e-160
4.59587028e-160
4.503429361e-160
4.644023467e-160
4.985504833e-160
5.537085284e-160
6.333858891e-160
7.429784416e-160
8.911937256e-160
9.780288784e-160
7.999046942e-156
2.409051848e-155
1.823372741e-155
7.502280736e-156
2.668742732e-156
6.215219409e-154
1.054541262e-150
4.299003122e-148
1.752150655e-148
1.701540155e-145
1.969978633e-156
1.491926371e-130
1.883590068e-130
0
3.808458273e-108
0
6.10685502e-84
0
1.650766658e-72
1.08139839e-91
5.416878765e-53
6.311193402e-53
3.394436494e-74
1.621105703e-43
1.754504545e-62
-0.003989885564
0.463851993
5.210072116e-158
2.29162409e-158
1.619591189e-158
1.350637729e-158
1.227039908e-158
1.196478578e-158
1.227034483e-158
1.309258073e-158
1.444443484e-158
1.640284089e-158
1.908911003e-158
2.270503374e-158
2.485678965e-158
1.419155069e-154
5.091460003e-154
3.924666294e-154
1.630545911e-154
5.187328982e-155
2.421660735e-153
3.95018635e-150
1.463201758e-147
3.312176685e-148
8.570293329e-144
1.891647634e-156
6.654884731e-129
7.411244886e-129
0
5.87295904e-104
0
1.166792498e-82
0
3.803657749e-72
7.640226714e-92
5.48149508e-53
6.300148541e-53
1.456041069e-71
1.798390815e-43
0
-0.003816034355
0.4734489741
1.219672863e-156
5.330925875e-157
3.751263778e-157
3.114864e-157
2.818615473e-157
2.734676237e-157
2.788732249e-157
2.957142146e-157
3.240343463e-157
3.652435536e-157
4.216549953e-157
4.972659726e-157
5.422457808e-157
2.090756309e-153
9.146087232e-153
7.163769891e-153
3.009072428e-153
9.311787266e-154
8.672260421e-153
1.111628848e-149
3.981696456e-147
3.668942074e-148
3.003184897e-142
1.953898531e-156
1.146731729e-127
1.186285135e-127
1.076691358e-146
9.253492802e-101
0
8.885058007e-82
0
3.796366455e-72
3.389048274e-91
5.503846596e-53
5.781547386e-53
2.247309979e-65
1.808639749e-43
1.825754709e-43
-0.003612477987
0.4814611076
2.475549124e-155
1.0750594e-155
7.531451325e-156
6.226324686e-156
5.61114123e-156
5.416151121e-156
5.491362611e-156
5.785956694e-156
6.296040273e-156
7.043120622e-156
8.064797674e-156
9.429194459e-156
1.022604345e-155
2.560782827e-152
1.40224064e-151
1.113346778e-151
4.736109436e-152
1.456510213e-152
3.849466263e-152
2.281044179e-149
8.944329842e-147
3.739607057e-148
3.260491143e-141
1.88743448e-156
8.415203545e-127
9.713577843e-127
1.618585254e-145
2.168532874e-98
0
1.320430699e-81
0
3.770392366e-72
7.019355714e-91
5.453405265e-53
1.038839328e-71
5.853843724e-47
1.396086786e-44
2.100724214e-24
-0.003273081684
0.4884733706
4.379270127e-154
1.889227612e-154
1.317503766e-154
1.084307339e-154
9.730436195e-155
9.342779096e-155
9.416296898e-155
9.856495453e-155
1.064888074e-154
1.182035839e-154
1.342317933e-154
1.555764629e-154
1.675491098e-154
2.599844712e-151
1.834304658e-150
1.472968662e-150
6.361427874e-151
1.96182457e-151
2.438250417e-151
3.252696863e-149
1.132653022e-146
3.795785068e-148
6.226946348e-141
1.947651138e-156
2.882918443e-126
4.07643013e-126
0
1.281064696e-96
0
1.313054154e-81
0
3.746630467e-72
2.370770114e-91
5.047226798e-53
0
2.113403538e-46
0
1.111412828e-05
-0.00290283765
0.4947994932
6.775448661e-153
2.902952999e-153
2.014973676e-153
1.650675528e-153
1.474777606e-153
1.408288372e-153
1.410641569e-153
1.466570138e-153
1.572793719e-153
1.731974517e-153
1.950323406e-153
2.240619304e-153
2.392551757e-153
2.170599213e-150
2.037955388e-149
1.649648214e-149
7.261573573e-150
2.262336946e-150
1.751854865e-150
3.121267788e-149
1.514474139e-146
4.107203561e-148
6.194341092e-141
1.871332011e-156
5.311041403e-126
8.383675979e-126
6.108612882e-145
3.242118242e-95
3.45709938e-114
1.30396084e-81
0
3.720680289e-72
3.097910995e-91
3.584613416e-53
0
2.106030525e-46
1.283620705e-65
3.870749884e-05
-0.002494436065
0.5006483785
9.185406006e-152
3.907395765e-152
2.698993521e-152
2.20043915e-152
1.956857048e-152
1.857949743e-152
1.849089623e-152
1.908791207e-152
2.031408143e-152
2.218816337e-152
2.477296719e-152
2.820892923e-152
2.981727654e-152
1.468204719e-149
1.916101483e-148
1.546284572e-148
6.974075403e-149
2.212649451e-149
1.206784261e-149
2.566788168e-149
7.363649577e-146
2.54465894e-146
5.94487738e-141
3.60270774e-146
6.28870252e-126
1.015198241e-125
0
4.501951243e-94
0
1.294953472e-81
0
3.379437983e-72
0
1.522959697e-53
0
2.072559457e-46
0
7.68444106e-05
-0.002063838502
0.506139875
1.091498937e-150
4.607994932e-151
3.166643393e-151
2.568657766e-151
2.272997858e-151
2.14501461e-151
2.120296361e-151
2.17248662e-151
2.293716039e-151
2.484479015e-151
2.75004222e-151
3.10356968e-151
3.241340141e-151
7.835698753e-149
1.553633926e-147
1.207513299e-147
5.548694271e-148
1.806106685e-148
7.612224195e-149
4.039465195e-150
4.158128025e-142
4.812304546e-143
5.464937645e-156
6.005263299e-128
1.7560124e-125
1.047051847e-125
4.433952179e-144
2.467856329e-93
0
1.286654217e-81
3.119619918e-101
2.095066597e-72
2.273929239e-91
2.918905398e-54
1.491079964e-73
1.381938066e-46
0
0.000117956557
-0.001638163805
0.511314545
1.13521931e-149
4.753059208e-150
3.248281807e-150
2.620478951e-150
2.306284226e-150
2.162194714e-150
2.121842563e-150
2.157056988e-150
2.258697969e-150
2.425719413e-150
2.66145319e-150
2.976226792e-150
3.064069131e-150
3.14204137e-148
1.184997102e-146
8.511909809e-147
3.61603056e-147
1.203388513e-147
4.274445159e-148
5.85841369e-155
3.177687615e-137
2.95051429e-138
6.578206201e-156
1.18334386e-125
3.671141556e-123
2.112595877e-124
1.282636653e-143
3.369336875e-93
3.898171988e-112
1.044490208e-81
1.210937197e-100
6.616481763e-73
7.609807688e-92
1.805161188e-55
0
3.808817752e-47
2.645104946e-66
0.0001576181281
-0.001226963442
0.5162061572
1.029439934e-148
4.269966006e-149
2.900123821e-149
2.325393092e-149
2.034168268e-149
1.893458372e-149
1.843739989e-149
1.858803022e-149
1.92962778e-149
2.053999886e-149
2.232947197e-149
2.47322317e-149
2.5022178e-149
8.521291749e-148
1.00809167e-145
7.7394226e-146
2.001177104e-146
6.517826564e-147
2.047984621e-147
3.722477808e-159
2.380534391e-132
1.578591826e-133
7.206265391e-152
4.392656306e-124
4.027307311e-122
1.99502146e-120
2.741433637e-139
3.347304127e-93
0
5.726624019e-82
0
7.624564232e-74
1.141389589e-92
2.505145168e-57
0
2.852531393e-48
1.466999093e-71
0.0001933023053
-0.0008194354296
0.5208785277
8.080697149e-148
3.3151579e-148
2.235664205e-148
1.780195262e-148
1.546443817e-148
1.428007333e-148
1.37869515e-148
1.377342461e-148
1.416362402e-148
1.493413929e-148
1.607790672e-148
1.763329447e-148
1.746064747e-148
1.08907265e-147
2.106053603e-143
3.28637925e-144
1.142942328e-145
3.567635762e-146
8.258113144e-147
2.118764514e-163
1.703974489e-127
7.160535222e-129
0
7.596442611e-123
4.102701961e-139
1.964100447e-115
2.017477976e-134
3.326087121e-93
0
2.169465844e-82
4.321092267e-101
1.929695459e-75
2.845125311e-84
5.445041208e-60
1.278115127e-83
3.783957438e-50
3.68363692e-78
0.0002251122053
-0.0004135526112
0.5253852777
5.428900038e-147
2.198576739e-147
1.470340008e-147
1.161212324e-147
1.000321086e-147
9.149606414e-148
8.743891002e-148
8.640077983e-148
8.787905284e-148
9.180633555e-148
9.804142314e-148
1.066695975e-147
1.027611846e-147
4.854998899e-153
9.432548901e-139
1.272140071e-139
9.741472908e-142
5.810073764e-145
3.706141311e-146
1.832223559e-165
4.596788432e-124
1.710232187e-125
0
1.564727263e-120
3.765580971e-139
1.672268767e-110
1.205483684e-129
3.304436231e-93
0
9.292180198e-83
4.691404171e-84
0
7.372377414e-66
2.164495455e-67
1.311224509e-55
6.061413308e-53
2.059596339e-76
0.0002532128888
2.19421907e-06
0.5297700874
3.084235382e-146
1.230044545e-146
8.140313512e-147
6.359877456e-147
5.415960384e-147
4.888927196e-147
4.605947058e-147
4.487678001e-147
4.52052753e-147
4.729180657e-147
5.079455837e-147
5.516196858e-147
5.102677246e-147
1.790456063e-154
1.164318956e-134
8.397149916e-136
3.375392168e-138
1.608438615e-141
4.75906864e-145
1.406077119e-164
3.956138763e-122
2.713251006e-123
0
1.211742405e-118
0
4.821120037e-107
6.489862201e-126
2.874810881e-93
5.961681936e-112
2.059087415e-82
8.180004615e-83
2.597767969e-93
7.346942981e-66
2.295444142e-67
1.355844072e-55
1.455439055e-55
6.414441919e-76
0.000277873505
0.0004291495398
0.5340681303
1.492008458e-145
5.820542587e-146
3.788797072e-146
2.908824997e-146
2.430326671e-146
2.148137562e-146
1.984273417e-146
1.921518446e-146
1.988906304e-146
2.220161499e-146
2.484989299e-146
2.661043049e-146
2.282128654e-146
1.805735496e-154
6.324802466e-132
3.215847822e-133
9.916795492e-136
5.771060352e-139
1.999018184e-142
0
2.150422077e-121
7.380487567e-121
3.120941379e-121
5.008135544e-118
4.782674532e-123
3.878183339e-105
7.383470921e-124
1.632592806e-93
0
2.042085503e-82
8.224469803e-79
0
3.89119411e-66
5.520715623e-88
1.035249851e-55
4.094877275e-56
3.010004085e-78
0.0002990688023
0.0008571206846
0.5383035237
6.690905712e-145
2.486116373e-145
1.567898619e-145
1.167590853e-145
9.467845021e-146
8.182460635e-146
7.655737529e-146
8.33701633e-146
1.081595334e-145
1.442103323e-145
1.567998222e-145
1.504881566e-145
1.103738129e-145
6.962317637e-152
1.932259946e-130
1.359493906e-131
7.276039834e-134
1.868060565e-136
5.455582199e-139
6.882989489e-136
0
3.401290162e-116
1.168759833e-116
2.585898411e-120
9.022723201e-107
1.598259757e-104
2.509265602e-109
4.800882925e-94
5.492244034e-95
0
1.176222313e-74
3.76804812e-93
5.513002713e-67
0
2.533943985e-56
7.673993879e-57
1.015527673e-79
0.000343944988
0.001282099213
0.5424811572
3.501693387e-144
1.197252891e-144
7.266033417e-145
5.265791196e-145
4.326747622e-145
4.187101407e-145
5.321557163e-145
9.749016564e-145
2.25366867e-144
6.080190857e-144
1.823758448e-143
6.010613774e-143
2.246740825e-145
1.230832408e-138
5.079022276e-130
3.293354958e-130
8.782218957e-131
3.81984508e-132
1.828174696e-134
5.613313823e-130
7.306809979e-145
1.06221374e-112
2.964113807e-113
5.140577815e-126
3.487665512e-104
1.165194032e-117
9.643459561e-94
4.055657863e-95
8.842792196e-92
3.1681405e-106
5.650347808e-72
1.086738969e-89
1.317450177e-68
0
1.186056578e-57
3.907469515e-58
3.455127011e-80
0.0003913793446
0.001699343096
0.5465729136
1.274117485e-141
1.359206933e-141
1.726736818e-141
2.463815194e-141
3.94527384e-141
7.161916629e-141
1.457561489e-140
3.297102846e-140
8.260751969e-140
2.281149725e-139
6.913088828e-139
2.298038017e-138
8.572570146e-138
3.803243596e-137
2.478670403e-147
5.789168928e-126
2.224738825e-126
8.200754938e-128
5.546073986e-130
3.997245617e-126
0
1.533988284e-110
3.312706165e-111
2.080883719e-108
3.771820088e-103
5.246975787e-118
3.351935375e-91
3.831776427e-95
3.597843158e-87
1.389452089e-106
1.557041292e-70
2.717842557e-71
4.659959935e-71
0
9.28899876e-60
4.709624872e-60
8.842720437e-80
0.000452800179
0.002106135766
0.550553399
4.316225191e-137
4.605588008e-137
5.856740659e-137
8.372863945e-137
1.344822779e-136
2.451670215e-136
5.015528051e-136
1.141700735e-135
2.882162449e-135
8.030925414e-135
2.461734838e-134
8.339760997e-134
3.270489683e-133
1.991665149e-132
0
6.693165134e-122
1.921392682e-122
4.945122039e-124
2.62902745e-125
2.854639445e-124
0
1.632424782e-109
1.808256247e-110
1.10324063e-106
1.183477554e-104
2.247107961e-110
2.402872521e-90
1.979440618e-86
6.501899081e-83
1.001962822e-108
4.911266772e-70
8.971213871e-69
1.317061177e-67
0
1.755728874e-57
9.086316678e-58
0
0.0005059939432
0.002547258687
0.554461272
1.374530673e-132
1.467285628e-132
1.867716597e-132
2.675167037e-132
4.309711938e-132
7.890070211e-132
1.62250285e-131
3.716713396e-131
9.454996203e-131
2.659631152e-130
8.261393455e-130
2.875931607e-129
1.232148638e-128
9.591195233e-128
6.963974518e-147
5.888684971e-119
1.471766969e-119
5.164435682e-121
1.728591788e-120
2.853844192e-124
7.125892897e-115
2.113183509e-109
1.123089548e-111
5.575539969e-102
1.214130664e-117
8.639348127e-92
0
4.822002027e-81
6.660492641e-80
1.402463304e-80
0
4.27000719e-64
2.230321433e-63
5.312517538e-82
2.044859315e-55
8.008791587e-56
2.493472834e-76
0.0005602200041
0.002981290392
0.5583243464
4.120070126e-128
4.399783564e-128
5.605755899e-128
8.043998681e-128
1.299728208e-127
2.389488283e-127
4.939075803e-127
1.138583231e-126
2.919387193e-126
8.297315348e-126
2.621320479e-125
9.528932503e-125
4.718592476e-124
4.893578165e-123
3.787513727e-136
7.529478812e-117
2.546912698e-117
3.950245044e-117
1.136987409e-115
3.259105955e-114
4.602279775e-113
5.909670187e-110
1.180766487e-111
3.519475919e-99
0
5.382182412e-88
0
4.619900935e-77
9.058285693e-78
1.733229243e-78
5.682013805e-97
1.884771826e-60
2.200597517e-60
1.086492465e-79
3.847330306e-54
1.271544131e-54
2.074017058e-74
0.0006154003795
0.003417524479
0.5621511085
1.163546348e-123
1.242962538e-123
1.5850468e-123
2.278486052e-123
3.692140451e-123
6.815935858e-123
1.416057486e-122
3.285185203e-122
8.493323612e-122
2.443214374e-121
7.90892553e-121
3.09288141e-120
1.90061132e-119
2.606785236e-118
6.194608035e-117
5.611051182e-115
7.557782725e-114
2.415739196e-112
7.24918219e-111
2.05638952e-109
5.201789245e-108
5.798843323e-110
9.509935891e-103
5.280024994e-98
9.501334742e-105
8.41182247e-86
0
9.339302756e-75
7.504118538e-76
6.259428991e-77
0
3.625292803e-58
1.563551748e-58
0
1.624685537e-53
7.638150449e-54
8.025372131e-73
0.0006701963107
0.003852725507
0.5659490897
3.09887635e-119
3.311308026e-119
4.226021547e-119
6.085027482e-119
9.887895927e-119
1.832787888e-118
3.826981915e-118
8.935912398e-118
2.331292033e-117
6.812165077e-117
2.293129838e-116
1.013626192e-115
8.205562684e-115
1.428679484e-113
3.955617969e-112
1.310688343e-110
4.520760276e-109
1.463672411e-107
4.377394378e-106
1.238320703e-104
3.051590954e-103
5.451173946e-102
5.972995493e-101
3.107477469e-115
8.278060155e-90
5.810903041e-85
8.205779603e-92
8.039317304e-74
2.331393734e-72
3.749671511e-73
0
4.603870437e-57
1.064890502e-57
1.72614892e-56
1.926784717e-53
1.135585439e-51
0
0.0007237139022
0.004283909099
0.5697302797
7.790727929e-115
8.326381454e-115
1.06339269e-114
1.53356082e-114
2.498613303e-114
4.649715485e-114
9.757513361e-114
2.293771911e-113
6.049385828e-113
1.809144761e-112
6.512427046e-112
3.479964175e-111
3.761049984e-110
7.733228619e-109
2.252477346e-107
7.564212053e-106
2.613250197e-104
8.394677774e-103
2.505338507e-101
7.058824423e-100
1.719535323e-98
2.97827354e-97
3.697581619e-96
1.250909762e-114
6.234051031e-88
0
5.982928631e-78
4.918059659e-92
2.160559614e-67
1.728019196e-68
7.570413188e-70
5.972007363e-57
1.052868145e-57
9.562970113e-54
7.661261572e-54
1.006206572e-47
0
0.0007740628145
0.004703425426
0.5735002139
1.850672961e-110
1.978054049e-110
2.52770519e-110
3.65046764e-110
5.962640641e-110
1.113880671e-109
2.349253314e-109
5.564120019e-109
1.489154404e-108
4.628479458e-108
1.86836966e-107
1.285073098e-106
1.776250237e-105
4.056330177e-104
1.219971332e-102
4.143117053e-101
1.429788378e-99
4.560666394e-98
1.359122607e-96
3.80909664e-95
9.168235134e-94
1.53879381e-92
1.820519462e-91
0
4.603780427e-84
0
6.209482536e-73
8.694469506e-93
1.809158338e-62
1.098899913e-63
7.130625061e-70
5.013799114e-57
8.649099301e-55
2.425968925e-52
7.718007571e-54
1.250568976e-44
2.243460694e-63
0.0008219044704
0.005095076369
0.5772082563
4.158200653e-106
4.444034745e-106
5.681340233e-106
8.215118328e-106
1.344995716e-105
2.522053091e-105
5.347165594e-105
1.27835078e-104
3.501207985e-104
1.164813691e-103
5.630566767e-103
5.091616163e-102
8.376259128e-101
2.041857587e-99
6.276370538e-98
2.152582324e-96
7.404196373e-95
2.348803976e-93
6.986659099e-92
1.945895337e-90
4.623723005e-89
7.496948769e-88
8.3780975e-87
0
8.180279561e-82
0
3.627298606e-69
3.465009797e-89
1.323096085e-57
5.95920781e-59
7.44883373e-62
0
8.232503611e-53
2.083103871e-51
7.585801137e-54
2.916294708e-42
5.797182357e-61
0.0009281387155
0.005421020744
0.580763965
8.846845698e-102
9.452463757e-102
1.208723905e-101
1.749630122e-101
2.870716724e-101
5.403240376e-101
1.152485162e-100
2.793313225e-100
7.967831988e-100
2.983327755e-99
1.835983273e-98
2.103116745e-97
3.85674218e-96
9.813532659e-95
3.065769739e-93
1.060827218e-91
3.629615329e-90
1.147456884e-88
3.401497601e-87
9.41182608e-86
2.204121296e-84
3.44033962e-83
3.618921999e-82
4.646100027e-81
6.335238142e-81
1.704149641e-99
5.047311261e-67
1.16992815e-85
3.50447393e-54
1.677265978e-55
3.314645973e-58
3.595707708e-77
7.389559428e-52
9.593819544e-51
7.642785209e-54
1.858293885e-40
9.940751221e-60
0.0009827808804
0.005805948374
0.5841745231
1.784566104e-97
1.905792892e-97
2.437127442e-97
3.530694296e-97
5.804595695e-97
1.09691956e-96
2.358710689e-96
5.853724448e-96
1.799442741e-95
8.111538825e-95
6.470573861e-94
8.745845116e-93
1.711660847e-91
4.491509377e-90
1.421935991e-88
4.95767207e-87
1.684958489e-85
5.319208567e-84
1.567436586e-82
4.310602806e-81
9.921066762e-80
1.485410883e-78
1.509996348e-77
1.987292611e-76
6.315831683e-81
1.244121422e-70
3.191334452e-66
7.576092393e-83
3.037629274e-52
3.096686561e-53
5.913494823e-55
0
1.611769696e-51
7.556467184e-50
7.513842411e-54
4.370384447e-39
5.402497544e-59
0.001030081986
0.006179587027
0.5874767318
3.418227639e-93
3.647541861e-93
4.663592617e-93
6.760373284e-93
1.113604838e-92
2.114816913e-92
4.60849218e-92
1.196461433e-91
4.196941842e-91
2.410659354e-90
2.391159656e-89
3.565992294e-88
7.274995538e-87
1.954891462e-85
6.264649209e-84
2.196171755e-82
7.412579036e-81
2.339530968e-79
6.832856923e-78
1.869404841e-76
4.210687986e-75
6.029322354e-74
5.942688982e-73
8.065773431e-72
3.781391314e-70
1.602346321e-68
4.388243007e-67
0
1.684011367e-51
4.164760361e-50
1.774707102e-50
2.382568193e-51
1.614141406e-51
1.917544759e-47
7.57341293e-54
4.226241661e-38
1.865983971e-57
0.001073800892
0.006537359691
0.590683614
6.228651741e-89
6.638648635e-89
8.484055972e-89
1.230406167e-88
2.031366554e-88
3.886866935e-88
8.690101861e-88
2.461337966e-87
1.058344637e-86
7.782103721e-86
8.924288237e-85
1.403468397e-83
2.952522375e-82
8.085383125e-81
2.622978939e-79
9.216593739e-78
3.093352065e-76
9.756385079e-75
2.817137554e-73
7.673749835e-72
1.682364813e-70
2.299214932e-69
2.208054275e-68
3.272774503e-67
1.636882727e-65
6.803803719e-64
1.634605837e-78
4.446098413e-54
1.327863412e-68
2.507198484e-45
7.437185652e-46
6.438493655e-47
8.896542433e-49
1.286743784e-45
7.449134877e-54
1.629827424e-37
7.749279636e-62
0.00111095984
0.006879377452
0.593800452
1.082152451e-84
1.151453452e-84
1.470492157e-84
2.133593066e-84
3.534776829e-84
6.860303138e-84
1.61692633e-83
5.346939536e-83
2.955671709e-82
2.633392838e-81
3.269304658e-80
5.29032693e-79
1.142733253e-77
3.17698703e-76
1.04405063e-74
3.662601039e-73
1.225872831e-71
3.853080729e-70
1.098714839e-68
2.978772227e-67
6.317813638e-66
8.234984108e-65
7.760740601e-64
1.27125772e-62
6.743383979e-61
2.491861981e-59
1.588868703e-77
2.351167258e-50
3.760476267e-68
1.319032827e-40
2.813540207e-41
1.214185125e-42
1.390500494e-44
2.985080863e-44
7.513248416e-54
2.581620529e-37
4.631482689e-59
0.001139393491
0.007203675053
0.5968360707
1.797624367e-80
1.908398626e-80
2.435060112e-80
3.536766449e-80
5.900833276e-80
1.180401813e-79
3.091298435e-79
1.286467399e-78
8.979266643e-78
8.979582832e-77
1.155811858e-75
1.903985182e-74
4.214897052e-73
1.186201467e-71
3.950651156e-70
1.378104189e-68
4.617419864e-67
1.43891792e-65
4.055718006e-64
1.091594264e-62
2.227091197e-61
2.770669068e-60
2.585382754e-59
4.709709455e-58
2.634371959e-56
8.542856465e-55
0
3.034053438e-48
0
6.470014331e-37
1.11928429e-37
3.422929364e-39
5.104705272e-41
1.656549014e-42
7.39561199e-54
2.56214267e-37
0
0.00115650901
0.007507171573
0.5997996997
2.865382297e-76
3.032960754e-76
3.867259395e-76
5.633772793e-76
9.553718145e-76
2.040461732e-75
6.427354669e-75
3.469532014e-74
2.841744623e-73
3.000054294e-72
3.909234248e-71
6.53866399e-70
1.480624618e-68
4.211466939e-67
1.42035295e-65
4.912356268e-64
1.653449727e-62
5.074163157e-61
1.417854056e-59
3.767346974e-58
7.364707363e-57
8.760653005e-56
8.178049934e-55
1.658207244e-53
9.753845379e-52
2.74429709e-50
2.916752673e-49
1.877822183e-47
6.945429103e-52
1.522417092e-34
2.822914637e-35
2.023458446e-36
1.939018991e-37
2.112098266e-38
1.516713077e-39
2.532830959e-37
9.367051007e-56
0.001161440012
0.007777983182
0.6027088063
4.403755724e-72
4.644357388e-72
5.923861084e-72
8.702637902e-72
1.533424877e-71
3.732734266e-71
1.51824589e-70
1.013588064e-69
9.003104237e-69
9.663863059e-68
1.260199728e-66
2.144017303e-65
4.950076879e-64
1.423401112e-62
4.846369545e-61
1.661185339e-59
5.624189803e-58
1.688281649e-56
4.695489423e-55
1.220993396e-53
2.285152514e-52
2.604279683e-51
2.458684905e-50
5.538919195e-49
3.415725488e-47
8.624702923e-46
9.506709368e-45
0
1.490520609e-33
4.288304377e-33
1.264565565e-33
1.42760552e-32
5.336085389e-33
4.759268307e-34
3.787219853e-35
1.08148135e-36
0
0.001160661547
0.0080068153
0.6055805741
6.570201855e-68
6.901291715e-68
8.833527399e-68
1.326440133e-67
2.544160585e-67
7.69168135e-67
4.042816924e-66
3.051938913e-65
2.784169345e-64
2.976585167e-63
3.868773573e-62
6.718803676e-61
1.574053721e-59
4.585674711e-58
1.567027465e-56
5.340711746e-55
1.81341339e-53
5.301308684e-52
1.471943579e-50
3.705763381e-49
6.65988323e-48
7.277219769e-47
7.023286428e-46
1.757905202e-44
1.12758952e-42
2.54041823e-41
2.676607318e-40
0
1.07787192e-30
4.902043401e-32
6.409862712e-30
3.471860534e-28
1.423839993e-28
9.496132333e-30
3.903936612e-31
8.653255246e-33
0
0.001164077922
0.008193197325
0.6083794973
9.614481753e-64
1.006502444e-63
1.303542724e-63
2.062305866e-63
4.650987241e-63
1.837205593e-62
1.153785737e-61
9.123768091e-61
8.292714542e-60
8.731702967e-59
1.132298059e-57
2.013461824e-56
4.759938611e-55
1.409627329e-53
4.794756135e-52
1.636347095e-50
5.524850556e-49
1.573279354e-47
4.358086291e-46
1.051235625e-44
1.825533526e-43
1.909080663e-42
1.902775167e-41
5.32745911e-40
3.488866335e-38
6.996127988e-37
6.864322922e-36
1.048521425e-33
1.85964444e-29
5.611342137e-30
1.312302922e-25
1.366705692e-24
5.878942666e-25
4.23742311e-26
6.96208843e-28
7.889775708e-30
5.435660192e-50
0.001144710743
0.008344934699
0.6110644732
1.402755852e-59
1.468667906e-59
1.961483536e-59
3.460178402e-59
9.914535808e-59
4.919901136e-58
3.352204975e-57
2.652645827e-56
2.363345509e-55
2.435736696e-54
3.166897594e-53
5.768954789e-52
1.369909575e-50
4.135286788e-49
1.387552756e-47
4.786178402e-46
1.584790215e-44
4.422604784e-43
1.213991579e-41
2.787244039e-40
4.709127584e-39
4.689225025e-38
4.875298063e-37
1.552252681e-35
1.005004441e-33
1.810557251e-32
1.92134245e-31
2.341140686e-31
9.343202677e-45
4.845092697e-24
6.379328317e-22
6.281371357e-22
2.591583238e-22
2.426686066e-23
4.207837383e-25
2.481405247e-27
1.336353274e-48
0.001129832088
0.008423497334
0.6134671432
2.094828128e-55
2.214819453e-55
3.164432973e-55
6.695210462e-55
2.461554076e-54
1.38974538e-53
9.603429491e-53
7.427981666e-52
6.422813479e-51
6.463076248e-50
8.490604864e-49
1.578511997e-47
3.759826873e-46
1.156377299e-44
3.802406734e-43
1.336236486e-41
4.268119631e-40
1.179786687e-38
3.164975312e-37
6.925705547e-36
1.141488547e-34
1.074091811e-33
1.177686405e-32
4.368469526e-31
2.677733901e-29
4.455566907e-28
4.642344144e-27
8.538494452e-27
5.174422712e-32
1.767227137e-19
7.413172663e-19
1.111142221e-19
9.701728464e-20
1.207605386e-19
2.210766423e-20
3.88551387e-22
2.832789375e-41
0.001081651555
0.008492383345
0.6156372412
3.330361617e-51
3.62556629e-51
5.831745765e-51
1.537407011e-50
6.725471394e-50
3.951677658e-49
2.671933606e-48
1.994738812e-47
1.661446542e-46
1.634744397e-45
2.188709148e-44
4.117132942e-43
9.871853708e-42
3.074060008e-40
9.9037221e-39
3.550905424e-37
1.078831805e-35
2.98621099e-34
7.676197734e-33
1.620982255e-31
2.588140176e-30
2.283008172e-29
2.675737089e-28
1.184837028e-26
6.563092997e-25
1.056087308e-23
1.072195463e-22
1.899192971e-22
0
1.529969057e-16
9.461714072e-17
3.485768015e-17
5.73336781e-15
8.062471401e-15
1.677729366e-15
3.704503876e-17
0
0.00117283295
0.00839797423
0.617294451
5.915605835e-47
6.808078474e-47
1.276705163e-46
4.034888484e-46
1.903650719e-45
1.104068263e-44
7.177465228e-44
5.126343052e-43
4.087406479e-42
3.958006125e-41
5.435438189e-40
1.021928488e-38
2.488182502e-37
7.737701542e-36
2.466259469e-34
8.931848599e-33
2.568573315e-31
7.147267858e-30
1.72195805e-28
3.591890131e-27
5.446097368e-26
4.480444172e-25
5.71542781e-24
3.064818258e-22
1.474212223e-20
2.431376739e-19
2.287326037e-18
3.924864543e-18
3.201496007e-32