/*--------------------------------*- C++ -*----------------------------------*\
| =========                 |                                                 |
| \\      /  F ield         | OpenFOAM: The Open Source CFD Toolbox           |
|  \\    /   O peration     | Version:  v1912                                 |
|   \\  /    A nd           | Website:  www.openfoam.com                      |
|    \\/     M anipulation  |                                                 |
\*---------------------------------------------------------------------------*/
FoamFile
{
    version     2.0;
    format      ascii;
    class       volScalarField;
    location    "0.7";
    object      k.gas;
}
// * * * * * * * * * * * * * * * * * * * * * * * * * * * * * * * * * * * * * //

dimensions      [0 2 -2 0 0 0 0];


internalField   nonuniform List<scalar> 
4800
(
4.056257469e-07
5.415721433e-07
6.107002801e-07
6.574852475e-07
6.947203255e-07
7.275432985e-07
7.586926926e-07
7.898894758e-07
8.223570585e-07
8.570579941e-07
8.948166473e-07
9.363899976e-07
9.825128267e-07
1.033929529e-06
1.09141893e-06
1.155815679e-06
1.228030479e-06
1.309070787e-06
1.400063344e-06
1.502279864e-06
1.617167347e-06
1.746384765e-06
1.891848326e-06
2.055788273e-06
2.24082119e-06
2.450043275e-06
2.687152684e-06
2.956612615e-06
3.263873521e-06
3.615673355e-06
4.020530666e-06
4.489056427e-06
5.036274559e-06
5.681948802e-06
6.417400096e-06
7.561951181e-06
7.76960551e-06
1.192158942e-05
7.853854964e-06
2.520172952e-05
1.035959443e-06
1.424713416e-06
1.631044014e-06
1.768719736e-06
1.871261057e-06
1.95227218e-06
2.018770404e-06
2.074857664e-06
2.123136995e-06
2.165361825e-06
2.202768436e-06
2.236260761e-06
2.266519855e-06
2.294072193e-06
2.319334116e-06
2.342641856e-06
2.364272481e-06
2.384458938e-06
2.403401194e-06
2.421274695e-06
2.438237025e-06
2.454433298e-06
2.470000717e-06
2.485072614e-06
2.499782185e-06
2.514266156e-06
2.528668602e-06
2.543144834e-06
2.557867419e-06
2.573013735e-06
2.588918731e-06
2.604968517e-06
2.626518034e-06
2.62869934e-06
2.713429146e-06
2.531602766e-06
3.144480642e-06
1.54209346e-06
4.922171462e-06
5.859149806e-05
9.832149e-07
1.350729788e-06
1.545652705e-06
1.67575759e-06
1.772764583e-06
1.849511472e-06
1.912608096e-06
1.965913108e-06
2.011872293e-06
2.052131343e-06
2.087849102e-06
2.119871386e-06
2.148833782e-06
2.175225615e-06
2.199431437e-06
2.221758908e-06
2.242458091e-06
2.261735172e-06
2.279762436e-06
2.296685697e-06
2.31262994e-06
2.327703711e-06
2.342002642e-06
2.355612344e-06
2.368610943e-06
2.381071402e-06
2.393063861e-06
2.40465814e-06
2.415927463e-06
2.426945814e-06
2.437853842e-06
2.448388784e-06
2.461238952e-06
2.461580512e-06
2.527325708e-06
2.307789579e-06
3.191096219e-06
5.274019491e-07
4.812132482e-06
7.788527023e-05
9.871578518e-07
1.356495883e-06
1.552403522e-06
1.683156679e-06
1.780633638e-06
1.857740366e-06
1.921123157e-06
1.974662365e-06
2.020817692e-06
2.06124421e-06
2.097107343e-06
2.129257669e-06
2.158334321e-06
2.18482933e-06
2.209129376e-06
2.231543846e-06
2.252324266e-06
2.271678115e-06
2.289778886e-06
2.306773577e-06
2.322788394e-06
2.337933186e-06
2.352305009e-06
2.365991066e-06
2.379071272e-06
2.391620591e-06
2.403711362e-06
2.415415795e-06
2.426809007e-06
2.437971791e-06
2.448999254e-06
2.459989822e-06
2.471193198e-06
2.481133166e-06
2.50735751e-06
2.416774678e-06
3.019553129e-06
5.462975176e-07
4.245834159e-06
9.429638493e-05
9.867702396e-07
1.355915514e-06
1.551714873e-06
1.682395519e-06
1.779819372e-06
1.856885241e-06
1.920235627e-06
1.973748582e-06
2.019882316e-06
2.060290861e-06
2.096138865e-06
2.128276299e-06
2.157341796e-06
2.183826944e-06
2.208118011e-06
2.230523982e-06
2.251295969e-06
2.270641015e-06
2.288732129e-06
2.305715769e-06
2.321717509e-06
2.336846455e-06
2.351198754e-06
2.364860472e-06
2.377910058e-06
2.390420529e-06
2.402461534e-06
2.414101495e-06
2.425409566e-06
2.436461299e-06
2.447313964e-06
2.458200898e-06
2.4685061e-06
2.4803368e-06
2.497814814e-06
2.430408341e-06
2.966673873e-06
7.673203268e-08
1.116170758e-05
0.0001103793736
9.867242916e-07
1.355862409e-06
1.551655393e-06
1.682331326e-06
1.7797516e-06
1.856814902e-06
1.920163724e-06
1.973676081e-06
2.019810128e-06
2.060219821e-06
2.096069708e-06
2.128209636e-06
2.157278086e-06
2.183766465e-06
2.208060831e-06
2.230469924e-06
2.251244577e-06
2.270591508e-06
2.288683359e-06
2.305666159e-06
2.321664982e-06
2.33678834e-06
2.351131652e-06
2.364780074e-06
2.377810872e-06
2.390295504e-06
2.402301452e-06
2.413894078e-06
2.425137997e-06
2.436103079e-06
2.446828503e-06
2.457597953e-06
2.467353117e-06
2.480389682e-06
2.490693417e-06
2.460383817e-06
2.68929675e-06
1.904046992e-06
5.875199422e-06
0.0001254470096
9.866496377e-07
1.355764539e-06
1.551540945e-06
1.682205282e-06
1.779616813e-06
1.856673484e-06
1.920017459e-06
1.973526517e-06
2.019658624e-06
2.060067559e-06
2.095917692e-06
2.12805868e-06
2.157128791e-06
2.183619193e-06
2.207915672e-06
2.230326662e-06
2.251102645e-06
2.270449944e-06
2.288540751e-06
2.305520577e-06
2.321513898e-06
2.336628524e-06
2.350959034e-06
2.364589552e-06
2.377596041e-06
2.390048289e-06
2.402011575e-06
2.413548235e-06
2.42471897e-06
2.435586154e-06
2.446190007e-06
2.45679922e-06
2.465895878e-06
2.482953196e-06
2.467873405e-06
2.519539841e-06
2.716689809e-06
5.093328222e-07
1.602358505e-05
0.0001400770416
9.865762546e-07
1.355670789e-06
1.551431178e-06
1.682084326e-06
1.779487368e-06
1.856537604e-06
1.919876942e-06
1.973382963e-06
2.019513463e-06
2.059922051e-06
2.095772917e-06
2.127915516e-06
2.156987883e-06
2.183480921e-06
2.207780115e-06
2.23019355e-06
2.250971319e-06
2.270319297e-06
2.288409174e-06
2.305385889e-06
2.321373267e-06
2.336478363e-06
2.350794871e-06
2.364405863e-06
2.377386013e-06
2.389803503e-06
2.401721604e-06
2.413200023e-06
2.424296059e-06
2.43506772e-06
2.445546107e-06
2.45606253e-06
2.464231516e-06
2.487623767e-06
2.42643081e-06
2.724446513e-06
1.842632047e-06
5.755218249e-06
5.314184228e-05
0.0001568705028
9.865014401e-07
1.355576722e-06
1.551320598e-06
1.681962258e-06
1.77935655e-06
1.856400155e-06
1.919734755e-06
1.973237752e-06
2.019366776e-06
2.059775268e-06
2.095627226e-06
2.127771889e-06
2.156847039e-06
2.183343287e-06
2.207645781e-06
2.230062223e-06
2.250842268e-06
2.270191299e-06
2.288280452e-06
2.305254045e-06
2.321235203e-06
2.336330185e-06
2.350631778e-06
2.364222e-06
2.377174291e-06
2.389555337e-06
2.401426634e-06
2.412845735e-06
2.423866677e-06
2.434550618e-06
2.444863396e-06
2.455655002e-06
2.460720207e-06
2.501191514e-06
2.357471087e-06
2.953912668e-06
1.374804797e-06
1.262008835e-06
8.098438864e-05
0.0001750428386
9.864252704e-07
1.355482695e-06
1.551209645e-06
1.681839599e-06
1.779224954e-06
1.856261804e-06
1.919591643e-06
1.973091717e-06
2.019219498e-06
2.059628259e-06
2.095481803e-06
2.127629139e-06
2.156707776e-06
2.183208009e-06
2.207514617e-06
2.229934882e-06
2.250717979e-06
2.270068756e-06
2.288157749e-06
2.30512861e-06
2.321103724e-06
2.336188527e-06
2.350474889e-06
2.364043798e-06
2.376967537e-06
2.38931145e-06
2.401135474e-06
2.412495438e-06
2.423442959e-06
2.434042339e-06
2.444197685e-06
2.455318864e-06
2.456754081e-06
2.517156958e-06
2.299817977e-06
2.944876317e-06
1.731410234e-06
6.176237675e-06
0.0001113807121
0.000194400324
9.863476116e-07
1.355388698e-06
1.551098274e-06
1.681716304e-06
1.779092546e-06
1.85612254e-06
1.919447636e-06
1.972944942e-06
2.019071787e-06
2.059481278e-06
2.09533702e-06
2.127487778e-06
2.156570775e-06
2.183075964e-06
2.207387726e-06
2.229812884e-06
2.250600096e-06
2.269953633e-06
2.288043386e-06
2.305012298e-06
2.32098198e-06
2.336057025e-06
2.350328383e-06
2.363876047e-06
2.37677123e-06
2.389078074e-06
2.400855168e-06
2.41215702e-06
2.423033577e-06
2.433550155e-06
2.443589568e-06
2.454642649e-06
2.456244016e-06
2.510737667e-06
2.326613976e-06
2.970286634e-06
9.716681209e-07
1.827720857e-05
0.0001375705078
0.0002147113419
9.862683771e-07
1.355294823e-06
1.550986543e-06
1.68159244e-06
1.778959405e-06
1.85598247e-06
1.919302883e-06
1.972797641e-06
2.01892394e-06
2.059334729e-06
2.095193412e-06
2.127348504e-06
2.156436924e-06
2.182948259e-06
2.207266463e-06
2.229697869e-06
2.250490578e-06
2.269848239e-06
2.287940055e-06
2.304908223e-06
2.320873543e-06
2.335939745e-06
2.350196862e-06
2.363723928e-06
2.376591148e-06
2.388861587e-06
2.400592735e-06
2.411838054e-06
2.422646638e-06
2.433080111e-06
2.4430554e-06
2.453639665e-06
2.458300276e-06
2.492212834e-06
2.393581402e-06
2.778174147e-06
2.571373986e-06
5.142883244e-06
0.000166085018
0.0002360980335
9.861875049e-07
1.355201222e-06
1.550874559e-06
1.681468117e-06
1.778825656e-06
1.855841744e-06
1.919157578e-06
1.972650069e-06
2.018776303e-06
2.059189073e-06
2.095051584e-06
2.127212097e-06
2.156307207e-06
2.182826119e-06
2.207152332e-06
2.229591652e-06
2.250391586e-06
2.269755114e-06
2.287850712e-06
2.304819784e-06
2.320782286e-06
2.335841059e-06
2.350085219e-06
2.363592875e-06
2.376433237e-06
2.388668437e-06
2.400355103e-06
2.411545818e-06
2.422289283e-06
2.43264035e-06
2.442580405e-06
2.452585739e-06
2.460452804e-06
2.476132356e-06
2.451581422e-06
2.732043777e-06
3.579684231e-06
1.262021199e-05
0.000195296956
0.0002585028228
9.861049625e-07
1.355108115e-06
1.550762486e-06
1.681343502e-06
1.778691475e-06
1.855700563e-06
1.919011964e-06
1.972502541e-06
2.01862928e-06
2.059044838e-06
2.094912222e-06
2.127079429e-06
2.156182725e-06
2.182710909e-06
2.207046997e-06
2.229496238e-06
2.2503055e-06
2.269677055e-06
2.2877786e-06
2.3047507e-06
2.320712424e-06
2.335765695e-06
2.349998709e-06
2.363488635e-06
2.376303719e-06
2.388505279e-06
2.400149232e-06
2.411287402e-06
2.421968026e-06
2.43224283e-06
2.442122457e-06
2.451829251e-06
2.461030273e-06
2.468192757e-06
2.480462911e-06
2.604229608e-06
3.574564172e-06
2.078535778e-05
0.000224964283
0.0002819540169
9.860207486e-07
1.355015795e-06
1.550650549e-06
1.681218818e-06
1.778557091e-06
1.85555918e-06
1.91886634e-06
1.97235542e-06
2.018483339e-06
2.058902623e-06
2.094776089e-06
2.12695147e-06
2.156064693e-06
2.182604132e-06
2.206952294e-06
2.229413834e-06
2.250234944e-06
2.269617137e-06
2.287727279e-06
2.304705044e-06
2.320668565e-06
2.335718805e-06
2.34994301e-06
2.36341735e-06
2.376209205e-06
2.388379121e-06
2.399982324e-06
2.411070011e-06
2.421690464e-06
2.431890552e-06
2.441729976e-06
2.451020136e-06
2.462350166e-06
2.456728192e-06
2.526729124e-06
2.526503244e-06
3.893414229e-08
2.947435299e-05
0.0002550065624
0.0003065651427
9.859348971e-07
1.354924635e-06
1.550539041e-06
1.681094351e-06
1.778422795e-06
1.855417905e-06
1.918721059e-06
1.972209135e-06
2.018339009e-06
2.058763097e-06
2.094644035e-06
2.126829295e-06
2.155954453e-06
2.182507444e-06
2.206870241e-06
2.229346871e-06
2.250182802e-06
2.26957874e-06
2.287700664e-06
2.304687296e-06
2.320655772e-06
2.335706041e-06
2.349924307e-06
2.363385722e-06
2.376156856e-06
2.388297492e-06
2.399862158e-06
2.410901588e-06
2.421464169e-06
2.431594604e-06
2.441370966e-06
2.450490081e-06
2.462208857e-06
2.452950231e-06
2.558962225e-06
2.135781078e-06
3.213879939e-06
4.065543382e-05
0.0002852707217
0.0003324721375
9.8584748e-07
1.354835094e-06
1.550428325e-06
1.680970455e-06
1.778288941e-06
1.85527711e-06
1.918576536e-06
1.972064173e-06
2.018196888e-06
2.058627009e-06
2.094517004e-06
2.126714087e-06
2.155853482e-06
2.182422668e-06
2.206803061e-06
2.229298022e-06
2.250152253e-06
2.269565595e-06
2.287703077e-06
2.304702401e-06
2.320679636e-06
2.335733631e-06
2.349949434e-06
2.363401204e-06
2.376154612e-06
2.388268678e-06
2.399797316e-06
2.410790838e-06
2.421297933e-06
2.431359377e-06
2.441097895e-06
2.449825909e-06
2.463494833e-06
2.443816544e-06
2.590649986e-06
1.994143488e-06
4.485128486e-06
3.761640074e-06
0.0003164491299
0.0003596770512
9.857586124e-07
1.354747729e-06
1.550318849e-06
1.680847563e-06
1.778155957e-06
1.855137238e-06
1.918433259e-06
1.971921096e-06
2.018057652e-06
2.058495194e-06
2.094396039e-06
2.126607153e-06
2.155763406e-06
2.182351812e-06
2.206753204e-06
2.229270242e-06
2.250146813e-06
2.269581833e-06
2.287739312e-06
2.304755851e-06
2.320746361e-06
2.335808476e-06
2.350026045e-06
2.363472157e-06
2.376211429e-06
2.388302038e-06
2.399797414e-06
2.410747499e-06
2.421201628e-06
2.431191893e-06
2.440939996e-06
2.448855301e-06
2.467824647e-06
2.416620478e-06
2.700144949e-06
1.651410081e-06
5.668071713e-06
9.703712196e-06
0.0003494530415
0.000388125098
9.856684587e-07
1.354663206e-06
1.550211151e-06
1.680726193e-06
1.778024351e-06
1.85499881e-06
1.918291789e-06
1.971780546e-06
2.017922062e-06
2.058368584e-06
2.094282298e-06
2.126509939e-06
2.155686025e-06
2.182297095e-06
2.206723379e-06
2.2292668e-06
2.250170381e-06
2.26963205e-06
2.287814715e-06
2.304853784e-06
2.320862894e-06
2.335938351e-06
2.350162762e-06
2.363607971e-06
2.376337438e-06
2.388408349e-06
2.399873538e-06
2.410782788e-06
2.421185917e-06
2.431108973e-06
2.440846406e-06
2.448132219e-06
2.471087935e-06
2.397033198e-06
2.761248383e-06
1.679743485e-06
4.109727414e-06
1.604465689e-05
0.0003831311011
0.0004178818291
9.855772381e-07
1.354582308e-06
1.55010587e-06
1.680606961e-06
1.777894727e-06
1.854862437e-06
1.918152779e-06
1.97164326e-06
2.017790985e-06
2.058248225e-06
2.094177074e-06
2.126424051e-06
2.155623332e-06
2.182260977e-06
2.206716593e-06
2.229291336e-06
2.250227311e-06
2.269721385e-06
2.28793528e-06
2.305003101e-06
2.321037088e-06
2.336132121e-06
2.350369396e-06
2.363819353e-06
2.376544177e-06
2.388599963e-06
2.400038687e-06
2.410909872e-06
2.421263886e-06
2.431124199e-06
2.440818803e-06
2.447782161e-06
2.472546108e-06
2.385976091e-06
2.815855455e-06
1.449828977e-06
5.558268866e-06
2.468557204e-05
0.0004173728139
0.0004490258023
9.854852326e-07
1.354505954e-06
1.550003765e-06
1.680490598e-06
1.777767797e-06
1.854728839e-06
1.918016988e-06
1.971510081e-06
2.017665406e-06
2.058135303e-06
2.094081818e-06
2.126351284e-06
2.155577551e-06
2.182246201e-06
2.206736206e-06
2.22934792e-06
2.250322479e-06
2.269855617e-06
2.28810777e-06
2.305211622e-06
2.321277889e-06
2.336399886e-06
2.350657198e-06
2.364118681e-06
2.376845057e-06
2.388891175e-06
2.40030802e-06
2.411144482e-06
2.421451481e-06
2.431250148e-06
2.440903339e-06
2.447552474e-06
2.473790549e-06
2.379983253e-06
2.817377476e-06
1.615987738e-06
8.581681652e-06
3.515060882e-05
0.0004521251664
0.0004816274962
9.853927953e-07
1.354435209e-06
1.549905725e-06
1.680377966e-06
1.777644403e-06
1.854598861e-06
1.917885305e-06
1.971381987e-06
2.017546453e-06
2.058031168e-06
2.093998172e-06
2.126293658e-06
2.155551177e-06
2.182255845e-06
2.206785989e-06
2.229441131e-06
2.250461386e-06
2.27004128e-06
2.288339858e-06
2.305488257e-06
2.32159553e-06
2.336753242e-06
2.351039157e-06
2.364520329e-06
2.377255777e-06
2.38929885e-06
2.400699367e-06
2.411505381e-06
2.421767767e-06
2.431506979e-06
2.441105869e-06
2.447547045e-06
2.47456848e-06
2.375654962e-06
2.845309718e-06
1.422175669e-06
7.011164192e-06
4.837557028e-05
0.0004871263803
0.0005156865318
9.853003615e-07
1.354371309e-06
1.549812796e-06
1.680270078e-06
1.777525537e-06
1.854473502e-06
1.917758775e-06
1.971260121e-06
2.017435429e-06
2.057937361e-06
2.093928012e-06
2.126253474e-06
2.155547042e-06
2.18229339e-06
2.206870203e-06
2.229576149e-06
2.250650269e-06
2.270285806e-06
2.288640305e-06
2.305843222e-06
2.322001783e-06
2.337205595e-06
2.351530368e-06
2.365041091e-06
2.377794788e-06
2.389842998e-06
2.401234047e-06
2.412014967e-06
2.422236052e-06
2.431918785e-06
2.441441804e-06
2.447864022e-06
2.474138845e-06
2.380598643e-06
2.816105558e-06
1.764785257e-06
2.220979174e-07
6.350556555e-05
0.0005221424852
0.0005512616172
9.85208462e-07
1.354315675e-06
1.549726196e-06
1.680168132e-06
1.777412376e-06
1.854353947e-06
1.917638634e-06
1.971145829e-06
2.017333856e-06
2.057855665e-06
2.093873482e-06
2.126233365e-06
2.155568389e-06
2.182362817e-06
2.206993712e-06
2.229758878e-06
2.250896242e-06
2.270597688e-06
2.289019163e-06
2.306288289e-06
2.322510271e-06
2.337772526e-06
2.352148456e-06
2.365700679e-06
2.378483884e-06
2.390547418e-06
2.401937706e-06
2.412700353e-06
2.422884827e-06
2.432512862e-06
2.441964892e-06
2.448256677e-06
2.47512944e-06
2.37496016e-06
2.85386595e-06
1.52989097e-06
2.270778014e-06
8.191291828e-05
0.000557045749
0.0005885782535
9.851177385e-07
1.354269945e-06
1.549647356e-06
1.680073539e-06
1.77730632e-06
1.85424161e-06
1.917526357e-06
1.971040706e-06
2.017243532e-06
2.05778817e-06
2.093837075e-06
2.126236355e-06
2.155618939e-06
2.182468715e-06
2.207162123e-06
2.229996103e-06
2.251207457e-06
2.270986679e-06
2.289488027e-06
2.306837096e-06
2.32313683e-06
2.338472221e-06
2.352914081e-06
2.366522324e-06
2.3793489e-06
2.391440518e-06
2.4028412e-06
2.413594574e-06
2.423748911e-06
2.433324956e-06
2.442709415e-06
2.448872459e-06
2.475978518e-06
2.373004607e-06
2.872661023e-06
1.367080185e-06
4.721430555e-06
9.951701791e-06
0.0005919569925
0.0006277259421
9.850289586e-07
1.354235986e-06
1.549577942e-06
1.679987965e-06
1.777209033e-06
1.854138184e-06
1.917423712e-06
1.970946664e-06
2.017166593e-06
2.057737347e-06
2.09382172e-06
2.126265978e-06
2.155702994e-06
2.182616357e-06
2.207381906e-06
2.230295683e-06
2.251593374e-06
2.271464078e-06
2.290060319e-06
2.307505494e-06
2.323899959e-06
2.339326005e-06
2.353851572e-06
2.367533507e-06
2.380420577e-06
2.392556315e-06
2.403981748e-06
2.414737843e-06
2.424871308e-06
2.434397615e-06
2.443744661e-06
2.449553845e-06
2.47828541e-06
2.365331424e-06
2.912215003e-06
1.208782862e-06
5.56443573e-06
1.766896934e-05
0.0006293308641
0.0006685331071
9.849430136e-07
1.354215896e-06
1.54951988e-06
1.679913368e-06
1.777122493e-06
1.854045693e-06
1.917332824e-06
1.970865995e-06
2.017105596e-06
2.057706132e-06
2.093830876e-06
2.126326379e-06
2.15582558e-06
2.182811851e-06
2.207660491e-06
2.230666725e-06
2.252065106e-06
2.272043223e-06
2.290751769e-06
2.308311984e-06
2.324821383e-06
2.34035907e-06
2.354989795e-06
2.368766982e-06
2.381735718e-06
2.393935757e-06
2.405404428e-06
2.416179223e-06
2.42630471e-06
2.435786929e-06
2.445126054e-06
2.450372728e-06
2.482036778e-06
2.352784937e-06
2.965831182e-06
1.063302614e-06
6.677896193e-06
2.945016512e-05
0.0006670026693
0.000710972223
9.848609409e-07
1.354212063e-06
1.549475421e-06
1.679852071e-06
1.777049077e-06
1.853966595e-06
1.917256276e-06
1.970801489e-06
2.017063635e-06
2.057698051e-06
2.093868664e-06
2.126422474e-06
2.155992634e-06
2.183062402e-06
2.208006642e-06
2.231119937e-06
2.25263574e-06
2.272739971e-06
2.291581216e-06
2.309278517e-06
2.325926761e-06
2.341601383e-06
2.356363279e-06
2.370262056e-06
2.383338642e-06
2.395628349e-06
2.40716401e-06
2.417978724e-06
2.428113795e-06
2.437565435e-06
2.446897028e-06
2.451631704e-06
2.485935447e-06
2.341255987e-06
3.022153171e-06
9.184698316e-07
8.199064515e-06
4.362599149e-05
0.000704815636
0.0007551132845
9.847841823e-07
1.354227605e-06
1.549447434e-06
1.679807015e-06
1.776991793e-06
1.853903997e-06
1.917197335e-06
1.970756652e-06
2.017044573e-06
2.057717477e-06
2.093940153e-06
2.126560267e-06
2.156211374e-06
2.183376736e-06
2.208431015e-06
2.231668292e-06
2.253320858e-06
2.273573004e-06
2.292571163e-06
2.310431674e-06
2.327246827e-06
2.343088639e-06
2.358013349e-06
2.372065955e-06
2.385282765e-06
2.397694012e-06
2.409327155e-06
2.420209811e-06
2.430379028e-06
2.439816596e-06
2.449177285e-06
2.453220843e-06
2.491281869e-06
2.325900565e-06
3.093545524e-06
7.90587476e-07
1.090098241e-05
5.949577297e-05
0.0007424742239
0.000801048518
9.847151239e-07
1.354266854e-06
1.549439807e-06
1.679782061e-06
1.776954532e-06
1.853861889e-06
1.917160177e-06
1.970735957e-06
2.017053316e-06
2.05776992e-06
2.094051683e-06
2.126747219e-06
2.156490689e-06
2.18376553e-06
2.208946558e-06
2.232327335e-06
2.25413904e-06
2.274564478e-06
2.293748028e-06
2.311803157e-06
2.328818738e-06
2.344863511e-06
2.359989225e-06
2.374235255e-06
2.387632455e-06
2.400205359e-06
2.411975175e-06
2.422962815e-06
2.433199718e-06
2.442649672e-06
2.452071863e-06
2.455363741e-06
2.497529146e-06
2.310376193e-06
3.166478651e-06
5.753186234e-07
6.562269532e-07
7.742214955e-05
0.0007798028053
0.0008487339522
9.846569473e-07
1.354333516e-06
1.549456745e-06
1.679781488e-06
1.776941677e-06
1.853844837e-06
1.91714964e-06
1.970744627e-06
2.017095626e-06
2.057861889e-06
2.094210775e-06
2.126992163e-06
2.156841011e-06
2.18424134e-06
2.20956837e-06
2.233115206e-06
2.255112176e-06
2.27574074e-06
2.295143182e-06
2.31343013e-06
2.330686669e-06
2.346977487e-06
2.362350051e-06
2.376837967e-06
2.390465578e-06
2.403250813e-06
2.41520772e-06
2.426349228e-06
2.436699686e-06
2.446200513e-06
2.455729685e-06
2.458221415e-06
2.504785834e-06
2.295129737e-06
3.241468146e-06
2.768391017e-07
2.22821813e-06
9.781080673e-05
0.0008164062904
0.0008979601964
9.846121037e-07
1.354426213e-06
1.549500735e-06
1.679808636e-06
1.776957147e-06
1.853857242e-06
1.917170599e-06
1.970788088e-06
2.017177626e-06
2.058000424e-06
2.094425703e-06
2.127304944e-06
2.157274081e-06
2.184818496e-06
2.210313882e-06
2.234053256e-06
2.256266319e-06
2.27713327e-06
2.296794311e-06
2.315357247e-06
2.332903449e-06
2.349492817e-06
2.365168001e-06
2.379957005e-06
2.393876997e-06
2.406938325e-06
2.419146948e-06
2.430506567e-06
2.441033078e-06
2.450639227e-06
2.460345856e-06
2.461966385e-06
2.513319539e-06
2.281476407e-06
3.296675049e-06
1.941396932e-07
4.393397766e-06
0.0001212663917
0.0008516130373
0.0009488438989
9.845828537e-07
1.354541986e-06
1.549573914e-06
1.679866978e-06
1.777005349e-06
1.85390426e-06
1.917228908e-06
1.970872952e-06
2.017306815e-06
2.058194123e-06
2.094706472e-06
2.127697342e-06
2.157804201e-06
2.185514384e-06
2.211204379e-06
2.235167484e-06
2.257633115e-06
2.278780391e-06
2.298747451e-06
2.317639364e-06
2.335533753e-06
2.352485529e-06
2.368531682e-06
2.383694203e-06
2.397983022e-06
2.411400166e-06
2.423942706e-06
2.435604106e-06
2.446390541e-06
2.456181983e-06
2.466131344e-06
2.467147247e-06
2.521010911e-06
2.287358991e-06
3.188651895e-06
1.512203905e-06
7.386187216e-06
1.777409632e-05
0.0008860504808
0.0010017387
9.845752244e-07
1.354691389e-06
1.549684399e-06
1.679964452e-06
1.777094569e-06
1.853994723e-06
1.917334078e-06
1.971009574e-06
2.017494623e-06
2.058455743e-06
2.095067422e-06
2.128185565e-06
2.158450464e-06
2.186351494e-06
2.21226658e-06
2.236489911e-06
2.259251254e-06
2.280728883e-06
2.301058977e-06
2.320343931e-06
2.338657391e-06
2.356049164e-06
2.372549948e-06
2.388175101e-06
2.402927306e-06
2.416799892e-06
2.429780547e-06
2.441851921e-06
2.453009621e-06
2.463098688e-06
2.473368028e-06
2.474303727e-06
2.527016589e-06
2.307551164e-06
3.236210444e-06
3.689709705e-08
7.67770476e-06
2.264289043e-05
0.0009232155786
0.001056551235
9.845955816e-07
1.354892975e-06
1.549844621e-06
1.680112922e-06
1.777236752e-06
1.854141019e-06
1.917499195e-06
1.97121198e-06
2.017756367e-06
2.058802317e-06
2.09552778e-06
2.128791551e-06
2.159237886e-06
2.187358674e-06
2.213534124e-06
2.238060303e-06
2.26116813e-06
2.283035494e-06
2.303797187e-06
2.323552981e-06
2.342372142e-06
2.360299002e-06
2.377357463e-06
2.393555565e-06
2.408888452e-06
2.423341038e-06
2.436891831e-06
2.44951285e-06
2.461189768e-06
2.47172314e-06
2.482517692e-06
2.483106032e-06
2.537845249e-06
2.318307027e-06
3.211713302e-06
2.627976957e-07
8.480304125e-06
3.531839934e-05
0.0009604060962
0.001113189225
9.846443101e-07
1.355150001e-06
1.550062265e-06
1.680322373e-06
1.777443232e-06
1.85435565e-06
1.917737997e-06
1.97149531e-06
2.018108893e-06
2.059252927e-06
2.096109535e-06
2.129541477e-06
2.160197373e-06
2.188572502e-06
2.215050286e-06
2.23992976e-06
2.263443824e-06
2.28577115e-06
2.30704648e-06
2.327367164e-06
2.346798053e-06
2.365377435e-06
2.383121566e-06
2.400030063e-06
2.416089901e-06
2.431278331e-06
2.445566079e-06
2.458916466e-06
2.471307354e-06
2.482493664e-06
2.49402874e-06
2.494456968e-06
2.552797739e-06
2.320042446e-06
3.158474542e-06
2.13781348e-06
9.87752751e-06
4.90663617e-05
0.0009969686103
0.001171603598
9.847253203e-07
1.355466886e-06
1.550344558e-06
1.680602226e-06
1.777725334e-06
1.854651681e-06
1.918065326e-06
1.971876361e-06
2.018571219e-06
2.059829325e-06
2.096837818e-06
2.130465203e-06
2.161364988e-06
2.190037073e-06
2.216869141e-06
2.242163832e-06
2.266156641e-06
2.289028621e-06
2.310915942e-06
2.33191458e-06
2.352086153e-06
2.371462632e-06
2.390051525e-06
2.407842559e-06
2.424813221e-06
2.440933361e-06
2.456168848e-06
2.470479009e-06
2.483839224e-06
2.495973402e-06
2.50838144e-06
2.511091621e-06
2.555000479e-06
2.419379078e-06
2.982097367e-06
4.500553291e-07
1.138259938e-05
6.341488893e-05
0.001032648085
0.001231749152
9.848443933e-07
1.355851384e-06
1.550702035e-06
1.68096527e-06
1.778097936e-06
1.855046025e-06
1.918500238e-06
1.972376648e-06
2.019167748e-06
2.060559382e-06
2.097744758e-06
2.13159973e-06
2.162784135e-06
2.191804344e-06
2.219053942e-06
2.244840399e-06
2.269402978e-06
2.29292589e-06
2.315546944e-06
2.33736253e-06
2.358432781e-06
2.378783953e-06
2.398414649e-06
2.417303595e-06
2.435416622e-06
2.452715481e-06
2.46916544e-06
2.484730265e-06
2.499399278e-06
2.512815014e-06
2.527097151e-06
2.527692079e-06
2.592336565e-06
2.369703354e-06
3.216029006e-06
1.410609695e-07
1.317205757e-05
7.874051787e-05
0.001067122247
0.001293596074
9.850106495e-07
1.356317477e-06
1.551150127e-06
1.68142892e-06
1.778580563e-06
1.855560465e-06
1.919066995e-06
1.973023307e-06
2.019929138e-06
2.061478082e-06
2.098871144e-06
2.132992765e-06
2.164511011e-06
2.193940566e-06
2.221683035e-06
2.248053344e-06
2.273297374e-06
2.29760408e-06
2.321113751e-06
2.343924057e-06
2.366093425e-06
2.387642623e-06
2.408561704e-06
2.428818227e-06
2.448364632e-06
2.46715352e-06
2.485154778e-06
2.502351479e-06
2.518761123e-06
2.53404884e-06
2.550240746e-06
2.553972992e-06
2.612590184e-06
2.436045659e-06
3.103978957e-06
5.297327586e-07
1.576125414e-05
9.7669028e-05
0.001100238663
0.001357258169
9.85231696e-07
1.356875733e-06
1.551704015e-06
1.682011832e-06
1.779195076e-06
1.856220055e-06
1.919794035e-06
1.97384857e-06
2.020892144e-06
2.062627674e-06
2.100266273e-06
2.13470265e-06
2.166615542e-06
2.196530232e-06
2.224858638e-06
2.251925635e-06
2.27798667e-06
2.30323938e-06
2.327830944e-06
2.3518625e-06
2.375390802e-06
2.398429031e-06
2.420955729e-06
2.442925552e-06
2.464275249e-06
2.484947332e-06
2.504924291e-06
2.524230635e-06
2.54295123e-06
2.56080258e-06
2.579892856e-06
2.587313765e-06
2.647022228e-06
2.464213321e-06
3.287478441e-06
1.268970166e-07
1.952522538e-05
0.0001188146331
0.001131377834
0.001422803701
9.855174622e-07
1.357539942e-06
1.552382138e-06
1.682736379e-06
1.779967689e-06
1.857054969e-06
1.920715829e-06
1.97489181e-06
2.022101974e-06
2.064060594e-06
2.101991416e-06
2.136801929e-06
2.169184425e-06
2.199677875e-06
2.228707809e-06
2.256612561e-06
2.283660723e-06
2.310062563e-06
2.335977074e-06
2.36151493e-06
2.386736002e-06
2.411644547e-06
2.436202367e-06
2.460344552e-06
2.483982963e-06
2.507045644e-06
2.529539794e-06
2.551565086e-06
2.573349356e-06
2.594580829e-06
2.618901774e-06
2.625660192e-06
2.713408936e-06
2.474810394e-06
3.275950081e-06
2.335802227e-06
4.823711854e-07
0.0001381571824
0.001159608143
0.001490116535
9.858788798e-07
1.358324788e-06
1.553205198e-06
1.683628154e-06
1.780928786e-06
1.858100566e-06
1.921873169e-06
1.97620006e-06
2.023613142e-06
2.065840701e-06
2.104122013e-06
2.139380838e-06
2.172326519e-06
2.203515528e-06
2.23339111e-06
2.262309739e-06
2.290558632e-06
2.318366943e-06
2.345912468e-06
2.37332324e-06
2.400669019e-06
2.427947712e-06
2.455102447e-06
2.482040758e-06
2.508629971e-06
2.534769071e-06
2.5605052e-06
2.586071867e-06
2.611902566e-06
2.638012103e-06
2.668698577e-06
2.680771897e-06
2.784869967e-06
2.571353047e-06
3.095319713e-06
1.961983727e-06
2.150229217e-05
0.0001531899991
0.001185810241
0.001559064439
9.863282378e-07
1.359246496e-06
1.5541966e-06
1.684716433e-06
1.782113513e-06
1.859398166e-06
1.923314215e-06
1.977829423e-06
2.025491374e-06
2.068045738e-06
2.106750915e-06
2.142551431e-06
2.176178122e-06
2.208209875e-06
2.239112884e-06
2.269267758e-06
2.298987319e-06
2.328528296e-06
2.358099147e-06
2.387860205e-06
2.417903704e-06
2.448230022e-06
2.478765705e-06
2.509387075e-06
2.539885123e-06
2.570100627e-06
2.600136354e-06
2.630439991e-06
2.661719398e-06
2.695306425e-06
2.732117027e-06
2.769502472e-06
2.846197937e-06
2.682535644e-06
3.696483667e-06
4.172218462e-07
2.510982316e-05
0.0001735968809
0.001208578998
0.001629664995
9.868788999e-07
1.360322587e-06
1.555382364e-06
1.686034255e-06
1.783562044e-06
1.860995561e-06
1.925095309e-06
1.979846325e-06
2.02781546e-06
2.07077004e-06
2.109992324e-06
2.146453049e-06
2.180910421e-06
2.213971977e-06
2.246133303e-06
2.277806834e-06
2.309340392e-06
2.341031573e-06
2.373141246e-06
2.405893225e-06
2.439435775e-06
2.473792915e-06
2.508892324e-06
2.544568851e-06
2.580447311e-06
2.616222856e-06
2.651966037e-06
2.688311924e-06
2.726684012e-06
2.770081986e-06
2.819376001e-06
2.884408647e-06
2.960376323e-06
2.92614519e-06
3.452775349e-06
1.868581822e-06
3.987241706e-06
0.0001876677944
0.001227857051
0.00170206339
9.875450843e-07
1.361571765e-06
1.556791014e-06
1.687618432e-06
1.785319773e-06
1.862947467e-06
1.92728182e-06
1.982328913e-06
2.030679434e-06
2.074127753e-06
2.113986438e-06
2.151258967e-06
2.1867387e-06
2.221069421e-06
2.254784388e-06
2.288338276e-06
2.322130223e-06
2.356527715e-06
2.391892094e-06
2.428570131e-06
2.466848533e-06
2.506667557e-06
2.547997671e-06
2.590487024e-06
2.633234064e-06
2.675314059e-06
2.716078611e-06
2.756294852e-06
2.79990034e-06
2.850757336e-06
2.926346094e-06
3.006906134e-06
3.16610104e-06
3.176397779e-06
3.536721497e-06
3.601877344e-06
2.894467492e-05
0.0002230325917
0.001240310785
0.001776592308
9.883412184e-07
1.363013665e-06
1.558453249e-06
1.689509327e-06
1.787437285e-06
1.865315768e-06
1.929948815e-06
1.985368383e-06
2.034194938e-06
2.078256651e-06
2.118904746e-06
2.157184484e-06
2.193933824e-06
2.229842446e-06
2.26549985e-06
2.301424768e-06
2.338112491e-06
2.376057376e-06
2.41574432e-06
2.457596121e-06
2.50199463e-06
2.54792247e-06
2.595382823e-06
2.643196799e-06
2.689060212e-06
2.730042993e-06
2.765080819e-06
2.798740082e-06
2.840746759e-06
2.889253163e-06
3.016613089e-06
3.026766588e-06
3.390656499e-06
3.256055424e-06