/*--------------------------------*- C++ -*----------------------------------*\
| =========                 |                                                 |
| \\      /  F ield         | OpenFOAM: The Open Source CFD Toolbox           |
|  \\    /   O peration     | Version:  v1912                                 |
|   \\  /    A nd           | Website:  www.openfoam.com                      |
|    \\/     M anipulation  |                                                 |
\*---------------------------------------------------------------------------*/
FoamFile
{
    version     2.0;
    format      ascii;
    class       volScalarField;
    location    "0.7";
    object      k.gas_0;
}
// * * * * * * * * * * * * * * * * * * * * * * * * * * * * * * * * * * * * * //

dimensions      [0 2 -2 0 0 0 0];


internalField   nonuniform List<scalar> 
4800
(
4.054565889e-07
5.411709543e-07
6.101285314e-07
6.56776194e-07
6.93885896e-07
7.265846866e-07
7.576042712e-07
7.886607019e-07
8.209735321e-07
8.555020865e-07
8.930678889e-07
9.344253266e-07
9.803067553e-07
1.031454263e-06
1.088644467e-06
1.152709899e-06
1.224559247e-06
1.305198067e-06
1.395751331e-06
1.497489147e-06
1.611857091e-06
1.74051291e-06
1.885371812e-06
2.048663267e-06
2.233003329e-06
2.441487916e-06
2.67781518e-06
2.94644863e-06
3.252839429e-06
3.603726978e-06
4.007631639e-06
4.475170232e-06
5.021374582e-06
5.66594819e-06
6.400802721e-06
7.542697221e-06
7.752585223e-06
1.19064204e-05
7.851507421e-06
2.51602642e-05
1.035848304e-06
1.424298101e-06
1.630350472e-06
1.767798963e-06
1.870149215e-06
1.950996573e-06
2.017352322e-06
2.073314133e-06
2.121481936e-06
2.163606828e-06
2.200923291e-06
2.234333834e-06
2.264518356e-06
2.292002366e-06
2.317201382e-06
2.340450916e-06
2.362027381e-06
2.382163129e-06
2.401057555e-06
2.41888556e-06
2.435804182e-06
2.451957995e-06
2.467483648e-06
2.482513907e-06
2.497181376e-06
2.511622172e-06
2.525979731e-06
2.5404087e-06
2.555080936e-06
2.570173362e-06
2.5860186e-06
2.602011819e-06
2.623462656e-06
2.625671953e-06
2.710040194e-06
2.528886555e-06
3.139580149e-06
1.535402251e-06
5.14379464e-06
5.857375347e-05
9.831265974e-07
1.350357354e-06
1.545017309e-06
1.674906623e-06
1.771731541e-06
1.848321516e-06
1.911280746e-06
1.964463897e-06
2.010313863e-06
2.050474181e-06
2.08610205e-06
2.118042004e-06
2.146928613e-06
2.173250376e-06
2.197391169e-06
2.219658089e-06
2.240300725e-06
2.259524858e-06
2.277502424e-06
2.294378931e-06
2.310279097e-06
2.325311236e-06
2.339570767e-06
2.353143118e-06
2.366106253e-06
2.378532997e-06
2.390493372e-06
2.402057106e-06
2.413297354e-06
2.424288174e-06
2.435169524e-06
2.44568361e-06
2.458490868e-06
2.458909274e-06
2.524232869e-06
2.306127845e-06
3.185341644e-06
5.200620283e-07
5.03670338e-06
7.787338935e-05
9.870645548e-07
1.356114415e-06
1.551756247e-06
1.682291808e-06
1.779585183e-06
1.856533871e-06
1.919778436e-06
1.97319519e-06
2.019240903e-06
2.059568467e-06
2.095341638e-06
2.127409694e-06
2.156410737e-06
2.182835962e-06
2.207071362e-06
2.229425754e-06
2.25015018e-06
2.269451706e-06
2.287503469e-06
2.304452155e-06
2.320423694e-06
2.335527694e-06
2.349860991e-06
2.363510598e-06
2.376556259e-06
2.389072789e-06
2.4011324e-06
2.412807198e-06
2.424172224e-06
2.435308224e-06
2.446310323e-06
2.457277022e-06
2.468455597e-06
2.478404108e-06
2.504394205e-06
2.415021619e-06
3.012924207e-06
5.360793218e-07
4.386740306e-06
9.430978575e-05
9.866776548e-07
1.355535491e-06
1.551069356e-06
1.681532635e-06
1.778773059e-06
1.855680988e-06
1.918893209e-06
1.972283741e-06
2.018307868e-06
2.058617442e-06
2.094375449e-06
2.126430566e-06
2.155420393e-06
2.181835686e-06
2.206062031e-06
2.22840784e-06
2.249123748e-06
2.268416384e-06
2.286458405e-06
2.303395956e-06
2.319354341e-06
2.334442423e-06
2.348756133e-06
2.362381348e-06
2.375396345e-06
2.387873995e-06
2.399883818e-06
2.41149413e-06
2.422774008e-06
2.433798904e-06
2.44462637e-06
2.455488328e-06
2.465772168e-06
2.477600705e-06
2.494870495e-06
2.428586758e-06
2.958872113e-06
8.261461176e-08
1.140221247e-05
0.0001103773248
9.866316887e-07
1.355482453e-06
1.551009801e-06
1.681468277e-06
1.778705042e-06
1.85561033e-06
1.918820918e-06
1.972210786e-06
2.018235163e-06
2.058545827e-06
2.094305663e-06
2.126363224e-06
2.155355959e-06
2.181774445e-06
2.206004057e-06
2.228352967e-06
2.249071527e-06
2.268366046e-06
2.286408813e-06
2.303345548e-06
2.319301053e-06
2.334383598e-06
2.348688389e-06
2.36230039e-06
2.375296697e-06
2.387748617e-06
2.399723503e-06
2.411286607e-06
2.42250246e-06
2.433440806e-06
2.444141193e-06
2.454885132e-06
2.46462186e-06
2.477640212e-06
2.487837241e-06
2.457876061e-06
2.685440773e-06
1.89429097e-06
5.724850329e-06
0.0001254440712
9.865571298e-07
1.355384871e-06
1.55089553e-06
1.681342346e-06
1.778570302e-06
1.855468894e-06
1.918674569e-06
1.972061072e-06
2.018083444e-06
2.058393286e-06
2.094153306e-06
2.126211868e-06
2.15520621e-06
2.181626669e-06
2.205858352e-06
2.228209125e-06
2.248928992e-06
2.268223869e-06
2.286265594e-06
2.303199371e-06
2.319149408e-06
2.334223271e-06
2.348515326e-06
2.362109507e-06
2.375081605e-06
2.387501258e-06
2.399433609e-06
2.410940881e-06
2.422083679e-06
2.432924257e-06
2.443503205e-06
2.454085838e-06
2.46317413e-06
2.480156579e-06
2.465148427e-06
2.517094797e-06
2.710252837e-06
5.273596127e-07
1.596487931e-05
0.0001400805338
9.864838554e-07
1.355291436e-06
1.550785939e-06
1.681221481e-06
1.778440865e-06
1.85533294e-06
1.918533897e-06
1.971917284e-06
2.017937971e-06
2.05824739e-06
2.094008069e-06
2.126068172e-06
2.155064706e-06
2.181487744e-06
2.205722092e-06
2.228075272e-06
2.248796899e-06
2.268092442e-06
2.286133241e-06
2.303063928e-06
2.319008061e-06
2.334072453e-06
2.348350586e-06
2.361925339e-06
2.374871216e-06
2.387256243e-06
2.399143556e-06
2.410592738e-06
2.42166099e-06
2.432406164e-06
2.442859985e-06
2.4533476e-06
2.461526759e-06
2.484724777e-06
2.424193793e-06
2.720157257e-06
1.847847192e-06
5.909223494e-06
5.303372852e-05
0.0001568762714
9.864091749e-07
1.355197735e-06
1.550675562e-06
1.681099517e-06
1.778310056e-06
1.855195405e-06
1.91839153e-06
1.971771801e-06
2.017790921e-06
2.058100155e-06
2.093861842e-06
2.125923928e-06
2.154923169e-06
2.18134935e-06
2.205586941e-06
2.227943082e-06
2.248666953e-06
2.267963533e-06
2.28600361e-06
2.302931198e-06
2.318869154e-06
2.333923497e-06
2.348186802e-06
2.361740896e-06
2.374659043e-06
2.387007774e-06
2.398848445e-06
2.410238476e-06
2.421231814e-06
2.431889314e-06
2.442178573e-06
2.452934946e-06
2.458048704e-06
2.498149935e-06
2.355629786e-06
2.949701723e-06
1.360217592e-06
6.469766083e-07
8.093959797e-05
0.0001750403088
9.863331637e-07
1.355104121e-06
1.550564838e-06
1.680976974e-06
1.778178466e-06
1.85505695e-06
1.918248208e-06
1.971625449e-06
2.017643222e-06
2.057952623e-06
2.093715798e-06
2.125780462e-06
2.154783104e-06
2.181213191e-06
2.20545483e-06
2.227814739e-06
2.248541622e-06
2.267839928e-06
2.285879845e-06
2.302804722e-06
2.318736678e-06
2.333780912e-06
2.34802908e-06
2.361561978e-06
2.374451715e-06
2.386763474e-06
2.398557048e-06
2.409888126e-06
2.420808236e-06
2.431381247e-06
2.441514148e-06
2.452593573e-06
2.454111184e-06
2.514068275e-06
2.297560231e-06
2.942018813e-06
1.735950007e-06
6.434762798e-06
0.0001113765271
0.0001943885194
9.862556882e-07
1.355010588e-06
1.550453722e-06
1.680853807e-06
1.778046059e-06
1.854917564e-06
1.918103958e-06
1.971478312e-06
2.017495031e-06
2.057805046e-06
2.093570306e-06
2.125638285e-06
2.154645186e-06
2.181080139e-06
2.20532685e-06
2.227691587e-06
2.248422538e-06
2.267723575e-06
2.285764245e-06
2.302687191e-06
2.31861376e-06
2.333648307e-06
2.347881571e-06
2.36139335e-06
2.374254681e-06
2.386529542e-06
2.398276375e-06
2.409549541e-06
2.42039889e-06
2.43088927e-06
2.440906362e-06
2.45192005e-06
2.453579474e-06
2.507759763e-06
2.324328071e-06
2.965918649e-06
1.001883945e-06
1.871606133e-05
0.0001375294328
0.0002147032173
9.86176662e-07
1.354917225e-06
1.550342272e-06
1.680730081e-06
1.777912918e-06
1.854777357e-06
1.917958931e-06
1.971330602e-06
2.017346642e-06
2.057657824e-06
2.093425896e-06
2.125498087e-06
2.154510294e-06
2.180951286e-06
2.205204346e-06
2.227575252e-06
2.248311641e-06
2.267616763e-06
2.285659482e-06
2.302581696e-06
2.318503944e-06
2.33352972e-06
2.347748843e-06
2.361240155e-06
2.374073681e-06
2.38631232e-06
2.398013406e-06
2.409230253e-06
2.42001184e-06
2.430419403e-06
2.440371651e-06
2.450924421e-06
2.455596606e-06
2.489365888e-06
2.391010936e-06
2.77707819e-06
2.569804896e-06
5.544127953e-06
0.0001661281801
0.0002360908858
9.860960233e-07
1.354824187e-06
1.550230595e-06
1.680605909e-06
1.777779165e-06
1.854636475e-06
1.917813319e-06
1.971182573e-06
2.017198397e-06
2.057511413e-06
2.093283169e-06
2.125360638e-06
2.154379404e-06
2.180827849e-06
2.205088807e-06
2.227467533e-06
2.248211071e-06
2.267522009e-06
2.285568485e-06
2.302491608e-06
2.318411072e-06
2.333429487e-06
2.347635756e-06
2.361107791e-06
2.373914623e-06
2.386118213e-06
2.397775029e-06
2.408937498e-06
2.419654188e-06
2.429979685e-06
2.439895939e-06
2.449876274e-06
2.45772415e-06
2.47336386e-06
2.449198469e-06
2.733034996e-06
3.563221873e-06
1.308607473e-05
0.0001953396706
0.0002584936643
9.860137398e-07
1.354731691e-06
1.550118856e-06
1.680481456e-06
1.777644977e-06
1.85449512e-06
1.917667365e-06
1.971034537e-06
2.017050701e-06
2.057366338e-06
2.093142802e-06
2.125226806e-06
2.154253604e-06
2.180711177e-06
2.204981881e-06
2.227370414e-06
2.248123189e-06
2.267442087e-06
2.28549447e-06
2.302420612e-06
2.318339326e-06
2.333352301e-06
2.347547521e-06
2.361001961e-06
2.373783683e-06
2.385953832e-06
2.397568156e-06
2.40867832e-06
2.419332409e-06
2.42958194e-06
2.439437553e-06
2.449122579e-06
2.458287645e-06
2.465478606e-06
2.477845322e-06
2.604965537e-06
3.631069703e-06
2.135088838e-05
0.0002250007472
0.0002819455825
9.859298107e-07
1.354640033e-06
1.55000728e-06
1.680356947e-06
1.777510585e-06
1.854353545e-06
1.917521365e-06
1.970886858e-06
2.016904015e-06
2.057223193e-06
2.093005554e-06
2.125097552e-06
2.1541341e-06
2.180602762e-06
2.204885386e-06
2.227286084e-06
2.248050592e-06
2.26738004e-06
2.285440964e-06
2.302372748e-06
2.318293272e-06
2.333303268e-06
2.347489771e-06
2.360928757e-06
2.37368742e-06
2.385826128e-06
2.397399934e-06
2.408459867e-06
2.419054041e-06
2.429229201e-06
2.439044221e-06
2.448316893e-06
2.459590139e-06
2.454081951e-06
2.524080333e-06
2.51850053e-06
9.547259368e-08
3.013597025e-05
0.0002550300872
0.0003065666857
9.858442699e-07
1.354549583e-06
1.54989616e-06
1.680232666e-06
1.777376277e-06
1.854212059e-06
1.917375674e-06
1.97073996e-06
2.016758868e-06
2.057082643e-06
2.092872269e-06
2.124973939e-06
2.154022221e-06
2.180504242e-06
2.204801323e-06
2.227216948e-06
2.247996138e-06
2.26733922e-06
2.285411845e-06
2.302352453e-06
2.318277928e-06
2.333287991e-06
2.347468639e-06
2.360894825e-06
2.373632936e-06
2.385742571e-06
2.397278079e-06
2.40829002e-06
2.418826596e-06
2.428932417e-06
2.438684459e-06
2.447787473e-06
2.459441228e-06
2.450377064e-06
2.555463265e-06
2.134667289e-06
3.301576557e-06
4.164497115e-05
0.0002852622932
0.0003324866572
9.8575719e-07
1.354460801e-06
1.549785859e-06
1.680108971e-06
1.777242411e-06
1.854071037e-06
1.917230707e-06
1.970594332e-06
2.016615855e-06
2.056945432e-06
2.092743881e-06
2.124857141e-06
2.15391943e-06
2.180417425e-06
2.204731891e-06
2.227165655e-06
2.247962975e-06
2.267323319e-06
2.285411395e-06
2.302364626e-06
2.318298834e-06
2.333312643e-06
2.347490895e-06
2.360907554e-06
2.373628102e-06
2.385711375e-06
2.397211102e-06
2.408177411e-06
2.418658787e-06
2.428696021e-06
2.43840965e-06
2.447127885e-06
2.460698631e-06
2.441363692e-06
2.586660883e-06
1.995971718e-06
4.482152376e-06
3.943689321e-06
0.0003166095545
0.0003596870216
9.856686867e-07
1.354374243e-06
1.549676825e-06
1.679986294e-06
1.777109414e-06
1.853930922e-06
1.917086951e-06
1.970450535e-06
2.016475649e-06
2.056812391e-06
2.092621428e-06
2.124748455e-06
2.153827341e-06
2.180344298e-06
2.204679517e-06
2.227135129e-06
2.247954583e-06
2.267336429e-06
2.285444361e-06
2.302414707e-06
2.318362136e-06
2.333384059e-06
2.347564126e-06
2.360975228e-06
2.373681795e-06
2.385741816e-06
2.39720853e-06
2.40813169e-06
2.418560394e-06
2.428526962e-06
2.438248846e-06
2.446166584e-06
2.46497158e-06
2.414372017e-06
2.695696867e-06
1.654120886e-06
5.698488038e-06
1.040469054e-05
0.0003496230956
0.0003881278388
9.855789246e-07
1.354290575e-06
1.549569597e-06
1.679865153e-06
1.776977796e-06
1.853792235e-06
1.916944969e-06
1.97030921e-06
2.01633901e-06
2.056684447e-06
2.092506062e-06
2.124649318e-06
2.153747736e-06
2.180287062e-06
2.204646885e-06
2.227128609e-06
2.247974826e-06
2.267383101e-06
2.285516037e-06
2.302508774e-06
2.318474713e-06
2.333509944e-06
2.347696873e-06
2.361107152e-06
2.373804053e-06
2.385844572e-06
2.39728135e-06
2.40816397e-06
2.418541989e-06
2.428441822e-06
2.438152275e-06
2.445448523e-06
2.468202883e-06
2.394840356e-06
2.757209211e-06
1.678566569e-06
4.146574944e-06
1.684726105e-05
0.000383305805
0.0004178804404
9.85488124e-07
1.354210579e-06
1.549464816e-06
1.679746169e-06
1.776848164e-06
1.853655592e-06
1.916805415e-06
1.970171094e-06
2.016206804e-06
2.056562644e-06
2.092399068e-06
2.124561323e-06
2.153682594e-06
2.180248153e-06
2.204636975e-06
2.2271497e-06
2.248028011e-06
2.267468424e-06
2.285632358e-06
2.302653662e-06
2.318644345e-06
2.333699076e-06
2.347898855e-06
2.361313933e-06
2.374006309e-06
2.386031883e-06
2.397442439e-06
2.408287293e-06
2.418616534e-06
2.428454058e-06
2.438121515e-06
2.445099593e-06
2.469639827e-06
2.383859634e-06
2.811616784e-06
1.450619063e-06
5.610527513e-06
2.557672927e-05
0.0004175451512
0.0004490234639
9.853965675e-07
1.354135172e-06
1.54936324e-06
1.679630073e-06
1.776721232e-06
1.853521714e-06
1.916669052e-06
1.970037033e-06
2.016080014e-06
2.056448165e-06
2.092301888e-06
2.124486253e-06
2.153634121e-06
2.180230292e-06
2.204653114e-06
2.227202432e-06
2.24811897e-06
2.267598118e-06
2.285800021e-06
2.302857114e-06
2.318879889e-06
2.333961458e-06
2.348181216e-06
2.361607834e-06
2.374301847e-06
2.386317914e-06
2.397706819e-06
2.408517246e-06
2.418799816e-06
2.428576157e-06
2.438202047e-06
2.444869784e-06
2.470871386e-06
2.377840912e-06
2.813606962e-06
1.625536401e-06
8.68063978e-06
3.613158005e-05
0.0004522883133
0.0004816230873
9.853046095e-07
1.35406542e-06
1.549265761e-06
1.67951773e-06
1.776597847e-06
1.853391451e-06
1.916536773e-06
1.969908008e-06
2.015959771e-06
2.056342355e-06
2.092216161e-06
2.124426118e-06
2.153604795e-06
2.180236532e-06
2.204699039e-06
2.227291341e-06
2.248253149e-06
2.267778656e-06
2.286026624e-06
2.303127952e-06
2.31919148e-06
2.334308577e-06
2.348556824e-06
2.362003094e-06
2.374706223e-06
2.386719371e-06
2.398092154e-06
2.408872417e-06
2.419110724e-06
2.428828058e-06
2.438399822e-06
2.444861538e-06
2.471641476e-06
2.373534313e-06
2.841281734e-06
1.42598566e-06
7.164084753e-06
4.949277804e-05
0.0004872618604
0.000515677168
9.852126865e-07
1.354002557e-06
1.549173425e-06
1.679410159e-06
1.776479006e-06
1.853265808e-06
1.916409627e-06
1.969785166e-06
2.015847379e-06
2.056246757e-06
2.092143754e-06
2.124383206e-06
2.153597428e-06
2.180270326e-06
2.204778977e-06
2.227421561e-06
2.248436727e-06
2.268017395e-06
2.286320841e-06
2.303476294e-06
2.319590777e-06
2.33475371e-06
2.34904063e-06
2.36251635e-06
2.375237716e-06
2.387256081e-06
2.39861957e-06
2.409374998e-06
2.419572348e-06
2.429233621e-06
2.43873007e-06
2.445172405e-06
2.471213916e-06
2.378441016e-06
2.812711649e-06
1.752933556e-06
3.688025602e-07
6.474575571e-05
0.0005222315153
0.0005512631006
9.851213306e-07
1.353948003e-06
1.549087455e-06
1.679308559e-06
1.776365892e-06
1.853145978e-06
1.916288858e-06
1.969669858e-06
2.015744364e-06
2.056163151e-06
2.092086808e-06
2.124360138e-06
2.153615242e-06
2.180335625e-06
2.204897748e-06
2.227598941e-06
2.248676749e-06
2.268322748e-06
2.286692629e-06
2.303913799e-06
2.320091272e-06
2.335312293e-06
2.349650095e-06
2.363167134e-06
2.375917923e-06
2.387951629e-06
2.399314475e-06
2.410051854e-06
2.420212914e-06
2.429819924e-06
2.439245628e-06
2.445560728e-06
2.47218058e-06
2.372894402e-06
2.849917374e-06
1.523599076e-06
2.451683108e-06
8.392292702e-05
0.0005570615428
0.0005886130007
9.850311854e-07
1.353903394e-06
1.549009282e-06
1.679214349e-06
1.776259913e-06
1.853033383e-06
1.916175951e-06
1.969563689e-06
2.015652528e-06
2.05609363e-06
2.09204781e-06
2.124359926e-06
2.153661938e-06
2.180436986e-06
2.205060917e-06
2.227830208e-06
2.248981295e-06
2.268704377e-06
2.287153472e-06
2.304453973e-06
2.320708653e-06
2.336002338e-06
2.35040569e-06
2.363978463e-06
2.376772445e-06
2.388834165e-06
2.400207453e-06
2.410935724e-06
2.421066924e-06
2.430622379e-06
2.439980661e-06
2.446170088e-06
2.473009169e-06
2.370996685e-06
2.868297682e-06
1.366219768e-06
4.722228318e-06
8.928514227e-06
0.0005922701894
0.0006277698578
9.849430205e-07
1.353870597e-06
1.548940577e-06
1.679129202e-06
1.776162741e-06
1.852929726e-06
1.916072684e-06
1.969468579e-06
2.015574017e-06
2.056040667e-06
2.092029686e-06
2.124386091e-06
2.153741795e-06
2.180579644e-06
2.2052749e-06
2.228123154e-06
2.24935974e-06
2.269173477e-06
2.287716666e-06
2.305112522e-06
2.321461244e-06
2.336844977e-06
2.351331521e-06
2.364977575e-06
2.37783175e-06
2.389937412e-06
2.401335397e-06
2.412066467e-06
2.422176995e-06
2.431683181e-06
2.441003538e-06
2.446846209e-06
2.475276168e-06
2.363437305e-06
2.907452848e-06
1.209585541e-06
5.604548036e-06
1.87233115e-05
0.0006296846344
0.0006685701033
9.848577302e-07
1.353851707e-06
1.548883269e-06
1.679055082e-06
1.776076365e-06
1.852837044e-06
1.915981193e-06
1.969386832e-06
2.015511394e-06
2.056007201e-06
2.092035891e-06
2.124442767e-06
2.153859814e-06
2.180769671e-06
2.205547073e-06
2.228486808e-06
2.249823095e-06
2.269743262e-06
2.288397796e-06
2.305907773e-06
2.322370571e-06
2.33786517e-06
2.352456193e-06
2.36619693e-06
2.379132321e-06
2.391301961e-06
2.402742996e-06
2.413492724e-06
2.42359536e-06
2.433057904e-06
2.442369354e-06
2.447658892e-06
2.478978617e-06
2.350999997e-06
2.960819951e-06
1.06649217e-06
6.751761456e-06
3.065062818e-05
0.0006673592078
0.0007110017116
9.847763538e-07
1.35384911e-06
1.548839613e-06
1.678994321e-06
1.776003174e-06
1.852757807e-06
1.915904078e-06
1.969321251e-06
2.015467764e-06
2.055996766e-06
2.092070544e-06
2.124534856e-06
2.154021905e-06
2.181014228e-06
2.205886136e-06
2.228931793e-06
2.250384334e-06
2.270429443e-06
2.289215525e-06
2.306861474e-06
2.32346206e-06
2.339092614e-06
2.353813929e-06
2.367675492e-06
2.380718094e-06
2.392976896e-06
2.404484557e-06
2.415273994e-06
2.425386147e-06
2.434818424e-06
2.444121232e-06
2.448908366e-06
2.48282177e-06
2.339600071e-06
3.016861102e-06
9.251082847e-07
8.30998791e-06
4.495474634e-05
0.0007051651736
0.0007551423374
9.847003274e-07
1.353865905e-06
1.548812474e-06
1.678949861e-06
1.775946182e-06
1.852695135e-06
1.915844617e-06
1.969275356e-06
2.015447001e-06
2.056013737e-06
2.09213871e-06
2.124668345e-06
2.154235253e-06
2.181321986e-06
2.206302667e-06
2.229470974e-06
2.251058905e-06
2.271250536e-06
2.290192145e-06
2.307999956e-06
2.32476616e-06
2.340562686e-06
2.355445692e-06
2.369460082e-06
2.382642036e-06
2.395021641e-06
2.40662619e-06
2.417483134e-06
2.427629137e-06
2.437047535e-06
2.446377531e-06
2.450486569e-06
2.488096069e-06
2.324401062e-06
3.088094133e-06
8.023973318e-07
1.075416139e-05
6.096596848e-05
0.0007427985714
0.0008010770953
9.846320269e-07
1.353906413e-06
1.548805735e-06
1.67892557e-06
1.775909291e-06
1.852653031e-06
1.915807003e-06
1.969253633e-06
2.01545402e-06
2.056063627e-06
2.092246721e-06
2.124850671e-06
2.154508705e-06
2.181703558e-06
2.206809522e-06
2.230119776e-06
2.25186523e-06
2.272228501e-06
2.291353842e-06
2.309354635e-06
2.32631969e-06
2.34231768e-06
2.357400286e-06
2.371606808e-06
2.384967991e-06
2.397508227e-06
2.409248562e-06
2.420209752e-06
2.430422831e-06
2.439853556e-06
2.449242551e-06
2.452614113e-06
2.494262588e-06
2.309027847e-06
3.16057315e-06
5.608441342e-07
8.522243475e-07
7.91069713e-05
0.000780077755
0.0008487353129
9.845746496e-07
1.353974394e-06
1.548823628e-06
1.67892575e-06
1.775896912e-06
1.852636089e-06
1.915796101e-06
1.969261331e-06
2.015494606e-06
2.056152959e-06
2.092402095e-06
2.12509065e-06
2.154852652e-06
2.182171432e-06
2.207421697e-06
2.230896197e-06
2.252825016e-06
2.273389457e-06
2.29273171e-06
2.310962353e-06
2.328166441e-06
2.344408636e-06
2.359736351e-06
2.374183127e-06
2.387773213e-06
2.4005244e-06
2.412450566e-06
2.423564495e-06
2.433890089e-06
2.443371264e-06
2.452863863e-06
2.455451177e-06
2.501425297e-06
2.293941002e-06
3.234907499e-06
2.655159462e-07
2.461401815e-06
9.962852785e-05
0.0008165947208
0.0008979172398
9.84530684e-07
1.354068546e-06
1.548868687e-06
1.678953779e-06
1.775912996e-06
1.852648744e-06
1.915816817e-06
1.969303906e-06
2.015574901e-06
2.056288783e-06
2.092613105e-06
2.125398104e-06
2.15527879e-06
2.182739857e-06
2.208156509e-06
2.231821428e-06
2.253964101e-06
2.274764609e-06
2.294363097e-06
2.312867361e-06
2.330358782e-06
2.34689727e-06
2.362525458e-06
2.377271288e-06
2.391151835e-06
2.404177306e-06
2.416353474e-06
2.427683883e-06
2.43818392e-06
2.44776947e-06
2.457435082e-06
2.459167467e-06
2.509862958e-06
2.280320303e-06
3.290629633e-06
1.826777265e-07
4.691617653e-06
0.0001241187372
0.0008516536501
0.0009487990211
9.845023715e-07
1.354185778e-06
1.548943012e-06
1.679013113e-06
1.775961946e-06
1.85269615e-06
1.915875007e-06
1.969387966e-06
2.015702401e-06
2.056479684e-06
2.09288973e-06
2.125784768e-06
2.155801344e-06
2.183426112e-06
2.209035088e-06
2.232921262e-06
2.255313868e-06
2.276391947e-06
2.296293632e-06
2.315124027e-06
2.332960814e-06
2.349858962e-06
2.365855479e-06
2.380972314e-06
2.395219287e-06
2.408598261e-06
2.42110608e-06
2.432736016e-06
2.443493636e-06
2.453262692e-06
2.463166318e-06
2.464301379e-06
2.517507998e-06
2.285743981e-06
3.18601841e-06
1.518835037e-06
7.402232058e-06
1.603206888e-05
0.0008864823618
0.00100169597
9.844957057e-07
1.354336422e-06
1.549054619e-06
1.679111622e-06
1.776051998e-06
1.852787106e-06
1.915980156e-06
1.969523843e-06
2.015888503e-06
2.056738375e-06
2.093246245e-06
2.126266765e-06
2.156439291e-06
2.184252531e-06
2.210083953e-06
2.234227464e-06
2.256912683e-06
2.27831785e-06
2.298579192e-06
2.317799202e-06
2.336051647e-06
2.353386449e-06
2.369834375e-06
2.385410762e-06
2.400118162e-06
2.41394968e-06
2.426892698e-06
2.438929586e-06
2.45005519e-06
2.460118928e-06
2.470337371e-06
2.47139057e-06
2.523460867e-06
2.306115593e-06
3.228648269e-06
4.167218941e-08
7.742945776e-06
2.390913419e-05
0.0009237476583
0.001056492144
9.845171219e-07
1.354539149e-06
1.54921596e-06
1.679261171e-06
1.776195096e-06
1.852933999e-06
1.916145349e-06
1.96972556e-06
2.016148513e-06
2.057081859e-06
2.093701819e-06
2.126865926e-06
2.157217492e-06
2.185247746e-06
2.211336461e-06
2.235779446e-06
2.258807506e-06
2.280598547e-06
2.30128746e-06
2.32097419e-06
2.339728206e-06
2.357594035e-06
2.374595716e-06
2.390741301e-06
2.406025779e-06
2.420433742e-06
2.433943235e-06
2.446525831e-06
2.458166155e-06
2.468669965e-06
2.479404948e-06
2.480119143e-06
2.534168607e-06
2.316838149e-06
3.204641682e-06
2.62421037e-07
8.585307916e-06
3.682314093e-05
0.000960949116
0.001113097789
9.845670061e-07
1.354797316e-06
1.549434776e-06
1.679471786e-06
1.776402606e-06
1.853149356e-06
1.916384346e-06
1.970008271e-06
2.016499276e-06
2.057529198e-06
2.094278393e-06
2.12760833e-06
2.158166685e-06
2.186448081e-06
2.212835523e-06
2.237627823e-06
2.26105782e-06
2.283304244e-06
2.304502001e-06
2.324748688e-06
2.344109453e-06
2.362622885e-06
2.380305478e-06
2.39715692e-06
2.41316401e-06
2.428303539e-06
2.442545509e-06
2.455852476e-06
2.468200798e-06
2.479351227e-06
2.490816445e-06
2.491368552e-06
2.549022506e-06
2.31791398e-06
3.157975783e-06
2.153980203e-06
1.002022959e-05
5.072392773e-05
0.0009975120758
0.001171465413
9.846492311e-07
1.355115296e-06
1.549718272e-06
1.679752875e-06
1.776685842e-06
1.853446229e-06
1.916711967e-06
1.970388743e-06
2.016959765e-06
2.05810207e-06
2.09500099e-06
2.128523696e-06
2.159322737e-06
2.187897352e-06
2.214634823e-06
2.239837609e-06
2.263741199e-06
2.286526782e-06
2.308330775e-06
2.32924949e-06
2.349344944e-06
2.368649545e-06
2.387171169e-06
2.404899709e-06
2.421812474e-06
2.437878681e-06
2.453063073e-06
2.46732365e-06
2.48063354e-06
2.492722605e-06
2.505050937e-06
2.507842149e-06
2.551240021e-06
2.417144006e-06
2.973068009e-06
4.699574879e-07
1.158513351e-05
6.521894117e-05
0.001033182888
0.00123154882
9.847695196e-07
1.35550071e-06
1.550076888e-06
1.680117147e-06
1.777059607e-06
1.853841461e-06
1.917147199e-06
1.970888411e-06
2.017554288e-06
2.058828215e-06
2.095901555e-06
2.129648775e-06
2.160728725e-06
2.189647108e-06
2.216797115e-06
2.242486056e-06
2.266953239e-06
2.290383095e-06
2.3129138e-06
2.334642218e-06
2.355629043e-06
2.375901152e-06
2.395457709e-06
2.414277729e-06
2.432326881e-06
2.449566076e-06
2.465958869e-06
2.481466782e-06
2.496075439e-06
2.509435199e-06
2.523607133e-06
2.524336743e-06
2.588157504e-06
2.367786202e-06
3.206782752e-06
1.626675276e-07
1.343447188e-05
8.069876702e-05
0.001067635556
0.001293329739
9.849369935e-07
1.355967511e-06
1.550526003e-06
1.680581952e-06
1.777543362e-06
1.854356765e-06
1.917714222e-06
1.97153431e-06
2.018313373e-06
2.05974245e-06
2.097020642e-06
2.131030946e-06
2.162440399e-06
2.191763002e-06
2.219399973e-06
2.245666104e-06
2.270807362e-06
2.295012985e-06
2.318423732e-06
2.341137914e-06
2.36321477e-06
2.384676016e-06
2.405512604e-06
2.425692611e-06
2.445168371e-06
2.463891385e-06
2.481828977e-06
2.498960448e-06
2.515297664e-06
2.530511661e-06
2.546573864e-06
2.550377611e-06
2.608308356e-06
2.433485408e-06
3.094558861e-06
5.637937852e-07
1.609953029e-05
9.983159396e-05
0.001100707348
0.001356934209
9.85159235e-07
1.356526212e-06
1.551080728e-06
1.681165862e-06
1.77815887e-06
1.855017084e-06
1.918441348e-06
1.972358521e-06
2.019273578e-06
2.060886771e-06
2.098407218e-06
2.132728114e-06
2.164527108e-06
2.19432877e-06
2.22254463e-06
2.249499451e-06
2.275448818e-06
2.300590722e-06
2.325072903e-06
2.348997291e-06
2.372421717e-06
2.395360808e-06
2.417794609e-06
2.439678795e-06
2.460950265e-06
2.481550168e-06
2.501457189e-06
2.520689644e-06
2.539323208e-06
2.557079169e-06
2.575998633e-06
2.583484453e-06
2.642228502e-06
2.462233824e-06
3.276026211e-06
1.737263598e-07
1.996320395e-05
0.0001212320126
0.00113175277
0.001422406165
9.854461356e-07
1.35719052e-06
1.551759403e-06
1.681891133e-06
1.778932208e-06
1.855852439e-06
1.919362869e-06
1.973400198e-06
2.020479836e-06
2.062313255e-06
2.100122084e-06
2.134812209e-06
2.167074753e-06
2.197447928e-06
2.226356858e-06
2.25413978e-06
2.281065455e-06
2.307344569e-06
2.333136781e-06
2.358553714e-06
2.383656629e-06
2.408451873e-06
2.432903661e-06
2.45694901e-06
2.48050065e-06
2.503485226e-06
2.525904406e-06
2.547847793e-06
2.569527689e-06
2.590638654e-06
2.614709916e-06
2.621587267e-06
2.708010823e-06
2.471780879e-06
3.273597584e-06
2.316395128e-06
8.384398744e-07
0.0001409520891
0.001159859251
0.001489605787
9.858085899e-07
1.357975033e-06
1.552582614e-06
1.682783212e-06
1.779893592e-06
1.856897989e-06
1.920519335e-06
1.974706074e-06
2.021986278e-06
2.064085267e-06
2.102240039e-06
2.137372628e-06
2.170191105e-06
2.201251114e-06
2.230995462e-06
2.259780523e-06
2.287893696e-06
2.315564587e-06
2.342971714e-06
2.370244175e-06
2.397453512e-06
2.424600598e-06
2.451632328e-06
2.478459588e-06
2.50495205e-06
2.531007845e-06
2.55666632e-06
2.5821444e-06
2.607851875e-06
2.633796289e-06
2.664169425e-06
2.676221902e-06
2.779164898e-06
2.566377464e-06
3.088370787e-06
2.030090065e-06
2.212690474e-05
0.0001561239971
0.001185994376
0.001558408711
9.862588483e-07
1.358895886e-06
1.553573634e-06
1.683871201e-06
1.781077951e-06
1.85819479e-06
1.921958581e-06
1.976331844e-06
2.023858108e-06
2.066279865e-06
2.10485305e-06
2.140520277e-06
2.174010983e-06
2.205903128e-06
2.236662421e-06
2.26666934e-06
2.296236879e-06
2.325622198e-06
2.355034388e-06
2.384634743e-06
2.414517556e-06
2.444687165e-06
2.475075885e-06
2.505565797e-06
2.53595344e-06
2.566080621e-06
2.596040008e-06
2.626252671e-06
2.657390514e-06
2.690735619e-06
2.727193721e-06
2.764199047e-06
2.839457967e-06
2.67971737e-06
3.681084867e-06
4.563705339e-07
1.927179131e-05
0.0001769352899
0.001208614244
0.001628864823
9.868102441e-07
1.359970516e-06
1.554758342e-06
1.685187941e-06
1.782525203e-06
1.859790306e-06
1.923736531e-06
1.978343394e-06
2.026173409e-06
2.068990459e-06
2.108074102e-06
2.144392921e-06
2.178703552e-06
2.211612477e-06
2.243614729e-06
2.275122554e-06
2.306483856e-06
2.337996385e-06
2.369920974e-06
2.402481519e-06
2.435827719e-06
2.469990047e-06
2.50490475e-06
2.540417883e-06
2.576168451e-06
2.611859307e-06
2.647553365e-06
2.683845486e-06
2.722083397e-06
2.765181996e-06
2.813935928e-06
2.878288297e-06
2.952563951e-06
2.92002571e-06
3.438943597e-06
1.863893624e-06
4.664850829e-06
0.0001913234644
0.001227752576
0.00170115045
9.874769872e-07
1.361217562e-06
1.556165124e-06
1.686770029e-06
1.784280444e-06
1.861738853e-06
1.925918018e-06
1.980818152e-06
2.02902526e-06
2.07232994e-06
2.112041733e-06
2.149161691e-06
2.184481371e-06
2.218643337e-06
2.25218013e-06
2.285546026e-06
2.319139589e-06
2.353327094e-06
2.388468068e-06
2.424908411e-06
2.462934634e-06
2.502510655e-06
2.543619811e-06
2.585935789e-06
2.628591881e-06
2.670695424e-06
2.711597774e-06
2.751973649e-06
2.7955638e-06
2.846215578e-06
2.920691812e-06
3.000699646e-06
3.156848079e-06
3.166911957e-06
3.528379301e-06
3.675098651e-06
2.240054545e-05
0.0002044677308
0.00124042342
0.001775554708
9.882735389e-07
1.362656648e-06
1.55782458e-06
1.688657629e-06
1.786393933e-06
1.864101838e-06
1.928577429e-06
1.983846373e-06
2.032524019e-06
2.076434374e-06
2.116925202e-06
2.155038986e-06
2.191611566e-06
2.227331059e-06
2.262785199e-06
2.298491181e-06
2.334941384e-06
2.372628011e-06
2.412039622e-06
2.453611446e-06
2.497740297e-06
2.54348157e-06
2.590853821e-06
2.638716931e-06
2.684809095e-06
2.726243245e-06
2.761817335e-06
2.79581398e-06
2.837679732e-06
2.886023864e-06
3.010824798e-06
3.023488041e-06
3.382424746e-06
3.246516984e-06