/*--------------------------------*- C++ -*----------------------------------*\
| =========                 |                                                 |
| \\      /  F ield         | OpenFOAM: The Open Source CFD Toolbox           |
|  \\    /   O peration     | Version:  v1912                                 |
|   \\  /    A nd           | Website:  www.openfoam.com                      |
|    \\/     M anipulation  |                                                 |
\*---------------------------------------------------------------------------*/
FoamFile
{
    version     2.0;
    format      ascii;
    class       volScalarField;
    location    "0.7";
    object      nut.gas;
}
// * * * * * * * * * * * * * * * * * * * * * * * * * * * * * * * * * * * * * //

dimensions      [0 2 -1 0 0 0 0];


internalField   nonuniform List<scalar> 
4800
(
1.444117544e-08
2.890204503e-08
3.962222401e-08
4.86442838e-08
5.669777871e-08
6.41454051e-08
7.121056211e-08
7.804922239e-08
8.478020456e-08
9.150012614e-08
9.829161303e-08
1.052281871e-07
1.123773809e-07
1.19802847e-07
1.275658794e-07
1.357265859e-07
1.443448622e-07
1.534812668e-07
1.631978721e-07
1.735591497e-07
1.846329452e-07
1.964915968e-07
2.092132575e-07
2.228834946e-07
2.375972603e-07
2.534613554e-07
2.70597571e-07
2.891467697e-07
3.092743306e-07
3.311771676e-07
3.550965021e-07
3.813182526e-07
4.102524324e-07
4.424109287e-07
4.771378737e-07
5.253949526e-07
5.400086315e-07
6.780121854e-07
5.576049087e-07
1.011739034e-06
2.307869055e-08
4.687747076e-08
6.475266239e-08
7.97844615e-08
9.305253987e-08
1.050766728e-07
1.161595519e-07
1.264968094e-07
1.362238834e-07
1.454393168e-07
1.542175705e-07
1.626166189e-07
1.706827202e-07
1.784535573e-07
1.859603883e-07
1.932295682e-07
2.002836608e-07
2.07142271e-07
2.138226883e-07
2.203403944e-07
2.267094778e-07
2.329429827e-07
2.390532122e-07
2.450520037e-07
2.50950989e-07
2.567618523e-07
2.624965985e-07
2.681678309e-07
2.737891479e-07
2.793745528e-07
2.849468849e-07
2.904766995e-07
2.962693053e-07
3.009176396e-07
3.102584192e-07
3.039952113e-07
3.435387096e-07
2.438516882e-07
4.414317015e-07
1.542661475e-06
2.248350488e-08
4.564410054e-08
6.303485361e-08
7.765946686e-08
9.057046037e-08
1.022738593e-07
1.130640292e-07
1.23131048e-07
1.326063901e-07
1.415856257e-07
1.501408908e-07
1.583282682e-07
1.661924167e-07
1.737696089e-07
1.810898047e-07
1.881781087e-07
1.950558253e-07
2.017412397e-07
2.08250209e-07
2.145966182e-07
2.207927392e-07
2.268495199e-07
2.327768219e-07
2.385836217e-07
2.442781897e-07
2.498682555e-07
2.553611739e-07
2.607641017e-07
2.66084245e-07
2.713287619e-07
2.765085323e-07
2.816114136e-07
2.867961754e-07
2.911951995e-07
2.994297448e-07
2.902465496e-07
3.460757486e-07
1.426071446e-07
4.364695366e-07
1.7786111e-06
2.252854217e-08
4.574142125e-08
6.317235962e-08
7.783072566e-08
9.077125261e-08
1.025011266e-07
1.133154341e-07
1.2340474e-07
1.329008674e-07
1.41899646e-07
1.504734107e-07
1.58678401e-07
1.665594009e-07
1.741527866e-07
1.814886046e-07
1.885920348e-07
1.954844493e-07
2.021841965e-07
2.087071956e-07
2.15067395e-07
2.212771348e-07
2.273474372e-07
2.332882476e-07
2.391086384e-07
2.448169898e-07
2.504211567e-07
2.559286349e-07
2.613467375e-07
2.666828048e-07
2.719444069e-07
2.771398842e-07
2.822777955e-07
2.8737555e-07
2.923494126e-07
2.982445138e-07
2.970209224e-07
3.366452996e-07
1.451393028e-07
4.099837686e-07
1.957045192e-06
2.252411877e-08
4.57316351e-08
6.315834638e-08
7.781312531e-08
9.075049585e-08
1.02477533e-07
1.132892561e-07
1.233761836e-07
1.32870106e-07
1.418668271e-07
1.504386612e-07
1.586418295e-07
1.665210997e-07
1.741128319e-07
1.81447056e-07
1.885489345e-07
1.9543982e-07
2.021380392e-07
2.086594856e-07
2.150180781e-07
2.212261207e-07
2.272945926e-07
2.332333851e-07
2.390515023e-07
2.447572354e-07
2.503583209e-07
2.558620902e-07
2.612756245e-07
2.666059012e-07
2.718601497e-07
2.770445102e-07
2.821751395e-07
2.872192659e-07
2.923024914e-07
2.976764317e-07
2.978575309e-07
3.336845669e-07
5.439497362e-08
6.647379449e-07
2.117372633e-06
2.252359436e-08
4.573073954e-08
6.315713589e-08
7.781164078e-08
9.074876805e-08
1.024755921e-07
1.13287135e-07
1.233739177e-07
1.328677317e-07
1.418643813e-07
1.504361795e-07
1.586393449e-07
1.665186409e-07
1.74110421e-07
1.814447067e-07
1.885466498e-07
1.954375893e-07
2.021358355e-07
2.086572624e-07
2.150157649e-07
2.212236182e-07
2.272917662e-07
2.332300569e-07
2.390474388e-07
2.447521308e-07
2.503517736e-07
2.558535657e-07
2.612644e-07
2.665909751e-07
2.718401639e-07
2.770170309e-07
2.821405316e-07
2.871521813e-07
2.923056074e-07
2.972517835e-07
2.99688717e-07
3.177024623e-07
2.709625372e-07
4.822768949e-07
2.257269895e-06
2.252274229e-08
4.572908902e-08
6.315480666e-08
7.780872581e-08
9.074533161e-08
1.024716897e-07
1.132828202e-07
1.23369243e-07
1.328627484e-07
1.418591389e-07
1.504307242e-07
1.586337186e-07
1.665128788e-07
1.741045499e-07
1.814387425e-07
1.885405945e-07
1.954314284e-07
2.021295342e-07
2.086507616e-07
2.150089766e-07
2.212164199e-07
2.272839937e-07
2.33221495e-07
2.390378089e-07
2.447410741e-07
2.503388271e-07
2.558381288e-07
2.612456834e-07
2.665679427e-07
2.71811321e-07
2.76980885e-07
2.820946792e-07
2.870673716e-07
2.924566191e-07
2.95886923e-07
3.032700876e-07
3.193164145e-07
1.401429486e-07
7.964618804e-07
2.385265976e-06
2.25219047e-08
4.572750793e-08
6.315257262e-08
7.780592842e-08
9.074203125e-08
1.024679399e-07
1.132786748e-07
1.23364756e-07
1.328579736e-07
1.418541289e-07
1.504255287e-07
1.586283825e-07
1.665074402e-07
1.740990375e-07
1.814331726e-07
1.885349681e-07
1.954257277e-07
2.021237186e-07
2.086447635e-07
2.150026961e-07
2.212097195e-07
2.272766905e-07
2.332133521e-07
2.390285242e-07
2.447302641e-07
2.50326007e-07
2.558226859e-07
2.612268373e-07
2.665446948e-07
2.717823909e-07
2.769444283e-07
2.82052382e-07
2.869704769e-07
2.927315534e-07
2.933920141e-07
3.153610876e-07
2.629786717e-07
4.710872148e-07
1.450452306e-06
2.524201248e-06
2.252105074e-08
4.572592144e-08
6.315032194e-08
7.780310518e-08
9.073869577e-08
1.024641467e-07
1.1327448e-07
1.23360217e-07
1.328531485e-07
1.418490747e-07
1.504203001e-07
1.58623029e-07
1.665020039e-07
1.740935503e-07
1.814276528e-07
1.88529417e-07
1.954201256e-07
2.021180208e-07
2.086388953e-07
2.149965481e-07
2.212031411e-07
2.272694835e-07
2.332052621e-07
2.390192302e-07
2.447193664e-07
2.503130093e-07
2.558069759e-07
2.612076609e-07
2.66521089e-07
2.71753532e-07
2.76905769e-07
2.820289809e-07
2.867659503e-07
2.935287613e-07
2.891928293e-07
3.28373262e-07
2.27154705e-07
2.205980233e-07
1.790547324e-06
2.666401265e-06
2.252018127e-08
4.572433556e-08
6.314806359e-08
7.780026819e-08
9.073534033e-08
1.024603285e-07
1.132702577e-07
1.233556521e-07
1.328483038e-07
1.418440127e-07
1.504150809e-07
1.58617708e-07
1.664966285e-07
1.740881568e-07
1.814222631e-07
1.885240342e-07
1.954147301e-07
2.021125656e-07
2.086333014e-07
2.149906988e-07
2.211968764e-07
2.272625935e-07
2.331974795e-07
2.39010222e-07
2.44708724e-07
2.50300235e-07
2.557914678e-07
2.611886991e-07
2.664977926e-07
2.717251625e-07
2.768680672e-07
2.820096777e-07
2.865347562e-07
2.94464088e-07
2.85634765e-07
3.278706119e-07
2.549184138e-07
4.88014155e-07
2.099859053e-06
2.809970917e-06
2.251929478e-08
4.572275014e-08
6.314579666e-08
7.77974164e-08
9.073196404e-08
1.024564849e-07
1.132660089e-07
1.233510639e-07
1.328434446e-07
1.418389514e-07
1.504098845e-07
1.586124386e-07
1.664913402e-07
1.740828922e-07
1.814170488e-07
1.885188772e-07
1.954096126e-07
2.021074406e-07
2.086280875e-07
2.149852747e-07
2.211910753e-07
2.272561972e-07
2.331902117e-07
2.390017419e-07
2.446986189e-07
2.502880107e-07
2.55776537e-07
2.611703791e-07
2.664752825e-07
2.716976886e-07
2.768336227e-07
2.819708411e-07
2.865050098e-07
2.94088375e-07
2.872939622e-07
3.292821146e-07
1.909678218e-07
8.395089931e-07
2.333715012e-06
2.953118171e-06
2.251839026e-08
4.572116672e-08
6.314352231e-08
7.779455132e-08
9.072856895e-08
1.02452619e-07
1.132617379e-07
1.233464591e-07
1.328385807e-07
1.418339048e-07
1.504047301e-07
1.586072468e-07
1.664861734e-07
1.740778004e-07
1.814120657e-07
1.885140151e-07
1.954048581e-07
2.021027487e-07
2.086233765e-07
2.149804212e-07
2.211859082e-07
2.272504925e-07
2.331836871e-07
2.389940517e-07
2.446893486e-07
2.502766705e-07
2.557625574e-07
2.611531109e-07
2.664540046e-07
2.716714479e-07
2.768033631e-07
2.819132276e-07
2.866249094e-07
2.930014386e-07
2.913992526e-07
3.184554563e-07
3.106589287e-07
4.453215904e-07
2.564191043e-06
3.096702735e-06
2.251746701e-08
4.571958786e-08
6.314124272e-08
7.779167553e-08
9.072515822e-08
1.024487348e-07
1.132574505e-07
1.233418457e-07
1.328337236e-07
1.418288888e-07
1.503996394e-07
1.586021617e-07
1.66481166e-07
1.740729303e-07
1.814073755e-07
1.885095249e-07
1.954005604e-07
2.020986028e-07
2.086193032e-07
2.149762967e-07
2.211815596e-07
2.272456921e-07
2.331781485e-07
2.389874263e-07
2.446812194e-07
2.502665523e-07
2.557498982e-07
2.611372888e-07
2.664343522e-07
2.716468955e-07
2.767764528e-07
2.818526752e-07
2.867503687e-07
2.920546438e-07
2.94908638e-07
3.15800482e-07
3.665418577e-07
6.975956181e-07
2.780563944e-06
3.240305648e-06
2.251652465e-08
4.571801729e-08
6.313896125e-08
7.778879287e-08
9.072173634e-08
1.024448379e-07
1.132531537e-07
1.233372334e-07
1.328288865e-07
1.418239215e-07
1.50394637e-07
1.585972158e-07
1.664763605e-07
1.740683364e-07
1.814030467e-07
1.885054913e-07
1.953968229e-07
2.020951276e-07
2.086160153e-07
2.149730749e-07
2.211782305e-07
2.272420262e-07
2.331738567e-07
2.389821563e-07
2.446745516e-07
2.50258005e-07
2.557389305e-07
2.61123297e-07
2.664166836e-07
2.716246995e-07
2.767505059e-07
2.818092038e-07
2.867840169e-07
2.915860383e-07
2.966406755e-07
3.083248988e-07
3.662796296e-07
8.952599802e-07
2.984296267e-06
3.384094452e-06
2.251556317e-08
4.571645994e-08
6.313668247e-08
7.778590852e-08
9.071830918e-08
1.024409353e-07
1.132488566e-07
1.233326337e-07
1.328240849e-07
1.418190237e-07
1.503897504e-07
1.585924454e-07
1.664718039e-07
1.740640787e-07
1.813991547e-07
1.885020076e-07
1.953937597e-07
2.0209246e-07
2.086136754e-07
2.149709456e-07
2.211761405e-07
2.272397452e-07
2.331710933e-07
2.389785523e-07
2.446696858e-07
2.502513957e-07
2.557300383e-07
2.611115259e-07
2.664014172e-07
2.716050283e-07
2.767282663e-07
2.817627008e-07
2.868609102e-07
2.909080528e-07
2.99394402e-07
3.036888812e-07
3.82266749e-08
1.066086783e-06
3.177319062e-06
3.528699852e-06
2.251458294e-08
4.57149221e-08
6.313441233e-08
7.778302906e-08
9.071488412e-08
1.024370354e-07
1.132445693e-07
1.2332806e-07
1.32819336e-07
1.418142182e-07
1.503850101e-07
1.585878904e-07
1.664675479e-07
1.740602232e-07
1.813957825e-07
1.884991767e-07
1.953914959e-07
2.020907505e-07
2.086124619e-07
2.149701179e-07
2.211755308e-07
2.272391243e-07
2.331701655e-07
2.389769532e-07
2.446669907e-07
2.502471191e-07
2.55723636e-07
2.611024058e-07
2.6638897e-07
2.715885013e-07
2.767079217e-07
2.817322323e-07
2.868526789e-07
2.906842872e-07
3.012980147e-07
2.792205183e-07
3.473090033e-07
1.252073197e-06
3.360576222e-06
3.674776756e-06
2.25135848e-08
4.571341153e-08
6.313215825e-08
7.778016272e-08
9.071147021e-08
1.024331488e-07
1.132403043e-07
1.233235274e-07
1.328146598e-07
1.418095311e-07
1.503804499e-07
1.585835951e-07
1.664636497e-07
1.740568426e-07
1.813930215e-07
1.884971115e-07
1.953901695e-07
2.020901653e-07
2.086125719e-07
2.149708224e-07
2.21176668e-07
2.272404664e-07
2.331714121e-07
2.38977736e-07
2.446668751e-07
2.502456096e-07
2.557201813e-07
2.610964086e-07
2.663798259e-07
2.715753645e-07
2.766924461e-07
2.816940499e-07
2.869275787e-07
2.901425936e-07
3.031577695e-07
2.69803242e-07
4.102878552e-07
3.808544534e-07
3.539460767e-06
3.822167342e-06
2.251257006e-08
4.571193763e-08
6.312992932e-08
7.77773195e-08
9.070807834e-08
1.024292874e-07
1.132360759e-07
1.233190537e-07
1.328100782e-07
1.418049909e-07
1.503761074e-07
1.585796081e-07
1.664601721e-07
1.740540171e-07
1.813909725e-07
1.88495937e-07
1.953899333e-07
2.020908882e-07
2.08614224e-07
2.149733151e-07
2.211798477e-07
2.272441071e-07
2.331752129e-07
2.389813232e-07
2.446698003e-07
2.502473573e-07
2.557201865e-07
2.610940617e-07
2.663745283e-07
2.715660107e-07
2.766834973e-07
2.816382415e-07
2.871796185e-07
2.885236477e-07
3.094980178e-07
2.455254e-07
4.612314209e-07
6.117012565e-07
3.71945717e-06
3.97044511e-06
2.251154058e-08
4.571051161e-08
6.31277365e-08
7.777451138e-08
9.070472152e-08
1.024254658e-07
1.132319007e-07
1.233146588e-07
1.328056165e-07
1.418006299e-07
1.503720241e-07
1.585759835e-07
1.664571845e-07
1.740518351e-07
1.813897467e-07
1.884957915e-07
1.953909566e-07
2.020931239e-07
2.086176619e-07
2.149778824e-07
2.211854007e-07
2.272504247e-07
2.331819954e-07
2.389881895e-07
2.446762875e-07
2.502529269e-07
2.557242424e-07
2.610959727e-07
2.663736641e-07
2.715613795e-07
2.76678193e-07
2.815966583e-07
2.873694295e-07
2.873519926e-07
3.129803485e-07
2.476226941e-07
3.927423423e-07
7.865668446e-07
3.894564078e-06
4.119837405e-06
2.251049886e-08
4.570914672e-08
6.312559285e-08
7.777175265e-08
9.070141511e-08
1.024217007e-07
1.132277979e-07
1.233103658e-07
1.328013031e-07
1.417964841e-07
1.503682464e-07
1.585727811e-07
1.66454764e-07
1.740503948e-07
1.813894678e-07
1.884968288e-07
1.953934283e-07
2.020971012e-07
2.086231588e-07
2.149848458e-07
2.211937012e-07
2.272598499e-07
2.331922463e-07
2.389988758e-07
2.446869306e-07
2.502629652e-07
2.557330411e-07
2.611028544e-07
2.66377953e-07
2.715622299e-07
2.766766285e-07
2.815765248e-07
2.874542043e-07
2.866884736e-07
3.160599823e-07
2.300527078e-07
4.567420456e-07
9.756454348e-07
4.064875313e-06
4.270600845e-06
2.250944814e-08
4.570785845e-08
6.312351378e-08
7.776906021e-08
9.069817732e-08
1.024180121e-07
1.1322379e-07
1.233062011e-07
1.327971706e-07
1.417925943e-07
1.503648265e-07
1.585700679e-07
1.664529964e-07
1.740498055e-07
1.813902739e-07
1.88499221e-07
1.953975601e-07
2.021030771e-07
2.086310228e-07
2.149945698e-07
2.21205175e-07
2.272728737e-07
2.33206523e-07
2.390140074e-07
2.447024193e-07
2.502782204e-07
2.557473899e-07
2.611155583e-07
2.66388272e-07
2.715692642e-07
2.766814197e-07
2.815633137e-07
2.875265336e-07
2.863282106e-07
3.161453888e-07
2.42877896e-07
5.675281622e-07
1.164224796e-06
4.230722017e-06
4.422918831e-06
2.250839244e-08
4.570666479e-08
6.312151743e-08
7.776645398e-08
9.069502959e-08
1.024144234e-07
1.132199032e-07
1.233021953e-07
1.327932559e-07
1.417890072e-07
1.503618234e-07
1.585679192e-07
1.664519782e-07
1.740501901e-07
1.813923199e-07
1.885031616e-07
1.954035907e-07
2.021113425e-07
2.086416035e-07
2.150074696e-07
2.212203092e-07
2.272900593e-07
2.332254691e-07
2.3903431e-07
2.447235607e-07
2.502995751e-07
2.557682376e-07
2.611350994e-07
2.664056691e-07
2.715836077e-07
2.76692898e-07
2.815630014e-07
2.875717392e-07
2.860677306e-07
3.17708699e-07
2.278481905e-07
5.129751017e-07
1.365788551e-06
4.391430102e-06
4.576634471e-06
2.250733672e-08
4.570558659e-08
6.311962507e-08
7.776395747e-08
9.069199727e-08
1.02410962e-07
1.132161683e-07
1.232983841e-07
1.327896021e-07
1.417857757e-07
1.503593044e-07
1.585664208e-07
1.664518185e-07
1.740516874e-07
1.81395781e-07
1.885088695e-07
1.954117907e-07
2.021222278e-07
2.086552998e-07
2.150240207e-07
2.212396639e-07
2.273120578e-07
2.332498322e-07
2.39060631e-07
2.44751303e-07
2.503280755e-07
2.557967182e-07
2.611626888e-07
2.664314246e-07
2.716066048e-07
2.767119361e-07
2.815812332e-07
2.875467739e-07
2.86365226e-07
3.160740181e-07
2.538136036e-07
9.130056402e-08
1.564862967e-06
4.546525862e-06
4.731863525e-06
2.250628706e-08
4.570464786e-08
6.311786157e-08
7.776159836e-08
9.068911042e-08
1.024076609e-07
1.13212622e-07
1.232948096e-07
1.327862593e-07
1.417829614e-07
1.503573466e-07
1.58565671e-07
1.664526427e-07
1.740544559e-07
1.814008568e-07
1.885165942e-07
1.954224687e-07
2.021361107e-07
2.086725693e-07
2.150447714e-07
2.212638869e-07
2.273396255e-07
2.332804844e-07
2.390939646e-07
2.447867655e-07
2.503649657e-07
2.558341949e-07
2.611997915e-07
2.664671029e-07
2.716397773e-07
2.767415778e-07
2.816038161e-07
2.876043322e-07
2.860258948e-07
3.18186037e-07
2.363193058e-07
2.91936608e-07
1.777242206e-06
4.696026965e-06
4.889398544e-06
2.250525079e-08
4.570387621e-08
6.311625603e-08
7.775940935e-08
9.068640473e-08
1.024045589e-07
1.132093077e-07
1.232915219e-07
1.327832865e-07
1.417806362e-07
1.503560394e-07
1.585657825e-07
1.664545944e-07
1.740586789e-07
1.814077779e-07
1.885266221e-07
1.95435978e-07
2.021534245e-07
2.086939397e-07
2.15070356e-07
2.212937308e-07
2.273736443e-07
2.333184478e-07
2.391354815e-07
2.44831274e-07
2.50411729e-07
2.558823066e-07
2.612481913e-07
2.665146143e-07
2.71685117e-07
2.76783762e-07
2.816392281e-07
2.876536584e-07
2.85908113e-07
3.19232077e-07
2.233911459e-07
4.20957276e-07
6.194683122e-07
4.840945879e-06
5.049383673e-06
2.250423666e-08
4.570330319e-08
6.311484241e-08
7.775742901e-08
9.068392268e-08
1.024017029e-07
1.132062776e-07
1.232885806e-07
1.327807543e-07
1.417788853e-07
1.503554881e-07
1.585668871e-07
1.664578397e-07
1.740645662e-07
1.814168097e-07
1.885392851e-07
1.954527288e-07
2.021746714e-07
2.087200211e-07
2.151015117e-07
2.213300743e-07
2.274151479e-07
2.333649246e-07
2.391865658e-07
2.448864047e-07
2.504701407e-07
2.559430288e-07
2.613100579e-07
2.665763164e-07
2.717449925e-07
2.768424077e-07
2.816784078e-07
2.877876319e-07
2.854454924e-07
3.214223338e-07
2.100598779e-07
4.569953516e-07
8.254219762e-07
4.991426328e-06
5.21092464e-06
2.250325488e-08
4.570296418e-08
6.311365996e-08
7.775570265e-08
9.068171475e-08
1.023991488e-07
1.132035945e-07
1.232860576e-07
1.327787467e-07
1.4177781e-07
1.503558168e-07
1.585691393e-07
1.664625725e-07
1.740723614e-07
1.814282573e-07
1.885549676e-07
1.954732024e-07
2.022004436e-07
2.087515287e-07
2.151390982e-07
2.213739485e-07
2.274653566e-07
2.334213405e-07
2.392488652e-07
2.449540431e-07
2.505423353e-07
2.560187513e-07
2.613880355e-07
2.666550947e-07
2.718225241e-07
2.76920643e-07
2.817254862e-07
2.880053609e-07
2.84687438e-07
3.243676587e-07
1.970141423e-07
5.006348164e-07
1.065649256e-06
5.138648786e-06
5.373777117e-06
2.250231729e-08
4.570289951e-08
6.311275453e-08
7.775428405e-08
9.067984162e-08
1.023969644e-07
1.132013347e-07
1.2328404e-07
1.327773656e-07
1.417775316e-07
1.503571736e-07
1.585727223e-07
1.664690219e-07
1.740823514e-07
1.814424803e-07
1.885741213e-07
1.954979656e-07
2.022314447e-07
2.087893182e-07
2.151841349e-07
2.214265703e-07
2.275257203e-07
2.33489399e-07
2.393243557e-07
2.450364571e-07
2.506308905e-07
2.561123746e-07
2.614853545e-07
2.66754487e-07
2.719217425e-07
2.770209099e-07
2.817978507e-07
2.882314649e-07
2.839890788e-07
3.274330914e-07
1.831055084e-07
5.547321917e-07
1.297009252e-06
5.282298203e-06
5.538082082e-06
2.250144038e-08
4.570316176e-08
6.311218454e-08
7.775324129e-08
9.067838006e-08
1.023952357e-07
1.131995946e-07
1.232826376e-07
1.327767382e-07
1.417782008e-07
1.503597403e-07
1.5857786e-07
1.664774664e-07
1.740948838e-07
1.814599158e-07
1.885972933e-07
1.955276927e-07
2.022685035e-07
2.088344111e-07
2.152378552e-07
2.214893961e-07
2.275979648e-07
2.335711364e-07
2.394154078e-07
2.451363766e-07
2.507389222e-07
2.562274236e-07
2.616059639e-07
2.668788881e-07
2.720472772e-07
2.771499574e-07
2.818891661e-07
2.885412436e-07
2.830562578e-07
3.312779945e-07
1.69880655e-07
6.39637676e-07
1.514654134e-06
5.421579623e-06
5.704042379e-06
2.25006514e-08
4.570382405e-08
6.311202922e-08
7.775266378e-08
9.067742934e-08
1.023940729e-07
1.131984977e-07
1.232819903e-07
1.32777026e-07
1.417800075e-07
1.503637446e-07
1.585848304e-07
1.664882488e-07
1.741103837e-07
1.814810949e-07
1.88625139e-07
1.955631876e-07
2.02312602e-07
2.088880056e-07
2.153017287e-07
2.215641846e-07
2.276841503e-07
2.336689754e-07
2.395248578e-07
2.452570861e-07
2.508701999e-07
2.563681909e-07
2.617547109e-07
2.670337126e-07
2.722051798e-07
2.773136849e-07
2.820122549e-07
2.889027981e-07
2.821100377e-07
3.351603342e-07
1.449182824e-07
1.56938049e-07
1.727838041e-06
5.556195858e-06
5.871365556e-06
2.249998673e-08
4.570494889e-08
6.311237418e-08
7.775265052e-08
9.067710136e-08
1.02393602e-07
1.131981866e-07
1.232822614e-07
1.327784186e-07
1.417831758e-07
1.503694563e-07
1.585939625e-07
1.665017713e-07
1.741293507e-07
1.815066362e-07
1.886584224e-07
1.956053964e-07
2.023649069e-07
2.089515232e-07
2.153774767e-07
2.216530245e-07
2.277867598e-07
2.337858221e-07
2.396561092e-07
2.454025518e-07
2.510293053e-07
2.565399266e-07
2.619375655e-07
2.672256971e-07
2.724029582e-07
2.77520446e-07
2.821763171e-07
2.89322204e-07
2.811776575e-07
3.391057951e-07
1.005269896e-07
2.891878677e-07
1.942065348e-06
5.685102784e-06
6.039234259e-06
2.249947437e-08
4.570651301e-08
6.311327005e-08
7.775327881e-08
9.067749607e-08
1.023939445e-07
1.131988053e-07
1.232836208e-07
1.327811174e-07
1.417879481e-07
1.503771723e-07
1.586056229e-07
1.665184863e-07
1.741523548e-07
1.81537254e-07
1.886980425e-07
1.956554444e-07
2.024268112e-07
2.090266696e-07
2.154671641e-07
2.217584096e-07
2.279087902e-07
2.339252172e-07
2.398133036e-07
2.455775956e-07
2.512218193e-07
2.56749051e-07
2.621618731e-07
2.674632068e-07
2.726499884e-07
2.777811588e-07
2.823911756e-07
2.898146395e-07
2.803400714e-07
3.419813349e-07
8.418333585e-08
4.060705369e-07
2.162422973e-06
5.806391305e-06
6.207985839e-06
2.249914017e-08
4.57084664e-08
6.31147604e-08
7.775462904e-08
9.067872594e-08
1.02395243e-07
1.132005267e-07
1.232862751e-07
1.327853693e-07
1.417946205e-07
1.503872514e-07
1.586202503e-07
1.665389448e-07
1.741800873e-07
1.815738194e-07
1.88745093e-07
1.957146973e-07
2.025000087e-07
2.091155265e-07
2.155733249e-07
2.218833885e-07
2.280538957e-07
2.340914993e-07
2.400015168e-07
2.457881152e-07
2.514545616e-07
2.570034168e-07
2.624366472e-07
2.677565537e-07
2.729581486e-07
2.781075674e-07
2.826881457e-07
2.902577525e-07
2.807012547e-07
3.363317659e-07
2.349492912e-07
5.265157572e-07
8.278738858e-07
5.922627006e-06
6.378676233e-06
2.2499053e-08
4.57109871e-08
6.31170104e-08
7.775688485e-08
9.068100231e-08
1.023977412e-07
1.132036315e-07
1.232905482e-07
1.327915502e-07
1.418036321e-07
1.504002079e-07
1.586384478e-07
1.665638822e-07
1.742134419e-07
1.816174257e-07
1.888009198e-07
1.957848232e-07
2.02586565e-07
2.09220639e-07
2.156990697e-07
2.220317169e-07
2.282265627e-07
2.342899859e-07
2.402269897e-07
2.46041374e-07
2.517359389e-07
2.573127151e-07
2.627730331e-07
2.681185369e-07
2.733422088e-07
2.785153117e-07
2.830978471e-07
2.906032801e-07
2.819375089e-07
3.388306666e-07
3.669991521e-08
5.368054558e-07
9.34407577e-07
6.045562453e-06
6.550864463e-06
2.24992856e-08
4.571438801e-08
6.312027315e-08
7.776032074e-08
9.068462987e-08
1.024017812e-07
1.132085059e-07
1.232968785e-07
1.328001639e-07
1.41815569e-07
1.50416731e-07
1.586610318e-07
1.665942614e-07
1.742535645e-07
1.816694481e-07
1.888671932e-07
1.95867863e-07
2.026889819e-07
2.09345086e-07
2.158481748e-07
2.222079858e-07
2.284323073e-07
2.345272375e-07
2.404974485e-07
2.463463728e-07
2.520763744e-07
2.57688981e-07
2.631849149e-07
2.685652175e-07
2.738203396e-07
2.790299883e-07
2.836009586e-07
2.912252547e-07
2.825938228e-07
3.375458072e-07
9.794442885e-08
5.64166028e-07
1.167000186e-06
6.166128966e-06
6.724156766e-06
2.249984234e-08
4.571872385e-08
6.312470497e-08
7.776516757e-08
9.068989759e-08
1.024077079e-07
1.13215555e-07
1.233057392e-07
1.328117643e-07
1.418310878e-07
1.504376087e-07
1.586889757e-07
1.666312715e-07
1.743019069e-07
1.817316548e-07
1.889460573e-07
1.959664013e-07
2.028103819e-07
2.094926649e-07
2.160252628e-07
2.224178177e-07
2.286779234e-07
2.348113809e-07
2.408224981e-07
2.467143282e-07
2.524888562e-07
2.581472025e-07
2.63689611e-07
2.691166673e-07
2.744162767e-07
2.796761494e-07
2.84248427e-07
2.92081916e-07
2.826995738e-07
3.347364631e-07
2.793533394e-07
6.088710726e-07
1.37550555e-06
6.282404452e-06
6.898325475e-06
2.25007679e-08
4.572406892e-08
6.313045274e-08
7.777164309e-08
9.069709411e-08
1.024158818e-07
1.132252167e-07
1.233176548e-07
1.328269763e-07
1.418509361e-07
1.504637408e-07
1.58723389e-07
1.666762987e-07
1.743602177e-07
1.818062526e-07
1.890402598e-07
1.960838024e-07
2.029548438e-07
2.096682757e-07
2.162362044e-07
2.226682665e-07
2.289718842e-07
2.35152541e-07
2.412141382e-07
2.471593093e-07
2.529896981e-07
2.587061968e-07
2.643088567e-07
2.697981426e-07
2.75160297e-07
2.804797387e-07
2.851946284e-07
2.922079036e-07
2.886882773e-07
3.252559442e-07
1.281745838e-07
6.53614898e-07
1.563745371e-06
6.393833486e-06
7.073176068e-06
2.250212825e-08
4.573055361e-08
6.313773061e-08
7.778004277e-08
9.070659842e-08
1.024267693e-07
1.132380526e-07
1.233332974e-07
1.328466014e-07
1.418760717e-07
1.504962772e-07
1.587656455e-07
1.667310093e-07
1.744305543e-07
1.818958187e-07
1.891530589e-07
1.962242001e-07
2.031275444e-07
2.098782548e-07
2.164886487e-07
2.229684768e-07
2.293250596e-07
2.355635975e-07
2.4168757e-07
2.47699118e-07
2.5359954e-07
2.593897538e-07
2.650701092e-07
2.706419008e-07
2.760870601e-07
2.815241616e-07
2.861357655e-07
2.943351696e-07
2.857091704e-07
3.377725178e-07
7.175834169e-08
7.031176945e-07
1.742487023e-06
6.499683912e-06
7.248575675e-06
2.250402752e-08
4.57384132e-08
6.314685212e-08
7.779076881e-08
9.071890779e-08
1.024409707e-07
1.132547776e-07
1.233535136e-07
1.32871646e-07
1.419076959e-07
1.505366763e-07
1.58817515e-07
1.667975592e-07
1.745155372e-07
1.820035402e-07
1.892883739e-07
1.963924926e-07
2.033346564e-07
2.101303876e-07
2.16792303e-07
2.233303055e-07
2.297516699e-07
2.36061375e-07
2.422625158e-07
2.483566973e-07
2.543448583e-07
2.602282512e-07
2.660083609e-07
2.716881557e-07
2.772511036e-07
2.828103471e-07
2.87619424e-07
2.954827355e-07
2.896809263e-07
3.318361658e-07
1.390584476e-07
7.691244245e-07
1.940657307e-06
6.599766964e-06
7.424796672e-06
2.250655244e-08
4.574782513e-08
6.315812541e-08
7.780425176e-08
9.073457848e-08
1.024591763e-07
1.132762289e-07
1.233793087e-07
1.329033156e-07
1.419472581e-07
1.505866992e-07
1.588811592e-07
1.668786273e-07
1.746185034e-07
1.821335688e-07
1.894513291e-07
1.965949449e-07
2.035838617e-07
2.104342216e-07
2.171591107e-07
2.237686547e-07
2.302700478e-07
2.366679604e-07
2.429650648e-07
2.491623595e-07
2.552604141e-07
2.612612643e-07
2.671687439e-07
2.729896807e-07
2.787108286e-07
2.844497391e-07
2.894906967e-07
2.974234861e-07
2.913508833e-07
3.415039956e-07
6.806042668e-08
8.560502237e-07
2.140451465e-06
6.69250929e-06
7.601964304e-06
2.250981622e-08
4.575902085e-08
6.317192453e-08
7.782100752e-08
9.0754277e-08
1.024822164e-07
1.133034205e-07
1.234119093e-07
1.329430917e-07
1.419965553e-07
1.506485319e-07
1.589592624e-07
1.669775291e-07
1.747435734e-07
1.82291053e-07
1.896483789e-07
1.968396338e-07
2.038851901e-07
2.108021021e-07
2.176042827e-07
2.243023934e-07
2.309035786e-07
2.374120317e-07
2.438297434e-07
2.501566968e-07
2.563929007e-07
2.62541813e-07
2.686114105e-07
2.746164761e-07
2.805429733e-07
2.865921626e-07
2.916280688e-07
3.011300463e-07
2.919766721e-07
3.409046854e-07
2.920027864e-07
1.345525386e-07
2.308113455e-06
6.775491082e-06
7.779710743e-06
2.251394334e-08
4.577224645e-08
6.318866894e-08
7.784162561e-08
9.077877517e-08
1.025110631e-07
1.133375513e-07
1.234527791e-07
1.329927583e-07
1.420577731e-07
1.507248619e-07
1.590551575e-07
1.6709842e-07
1.748959396e-07
1.824824813e-07
1.898876268e-07
1.971366915e-07
2.042513319e-07
2.11249919e-07
2.181476489e-07
2.249561442e-07
2.316827395e-07
2.383311748e-07
2.44902473e-07
2.513947075e-07
2.578066258e-07
2.641438802e-07
2.704216304e-07
2.766659426e-07
2.828812647e-07
2.893040189e-07
2.946727615e-07
3.050695956e-07
2.976172115e-07
3.31372977e-07
2.676188265e-07
8.983459136e-07
2.430444038e-06
6.851611792e-06
7.957659749e-06
2.251907362e-08
4.578777347e-08
6.32088322e-08
7.786677954e-08
9.080896452e-08
1.025468511e-07
1.133800343e-07
1.235036615e-07
1.330544631e-07
1.421335677e-07
1.508189907e-07
1.591729749e-07
1.672464898e-07
1.750821387e-07
1.827160848e-07
1.901794143e-07
1.974990655e-07
2.046984572e-07
2.117979147e-07
2.188147227e-07
2.257621934e-07
2.326484292e-07
2.39476986e-07
2.462479051e-07
2.529559296e-07
2.595971613e-07
2.661802225e-07
2.72731519e-07
2.79291906e-07
2.859366774e-07
2.927213192e-07
2.995097334e-07
3.084104005e-07
3.039834497e-07
3.621251836e-07
1.234106051e-07
9.707849712e-07
2.587267766e-06
6.917077975e-06
8.135841917e-06
2.252535888e-08
4.580589458e-08
6.323293998e-08
7.789722815e-08
9.084586255e-08
1.025908902e-07
1.134325202e-07
1.235666172e-07
1.331307758e-07
1.422271554e-07
1.509349698e-07
1.593178371e-07
1.674282375e-07
1.753104196e-07
1.830023007e-07
1.905368934e-07
1.979432666e-07
2.052472963e-07
2.124723606e-07
2.196394084e-07
2.267652013e-07
2.338598602e-07
2.40927878e-07
2.479681029e-07
2.549677933e-07
2.619161287e-07
2.688200769e-07
2.7571536e-07
2.826796994e-07
2.898758963e-07
2.973590797e-07
3.056598927e-07
3.145356865e-07
3.174863984e-07
3.499842445e-07
2.611710418e-07
3.868454552e-07
2.690080609e-06
6.9720269e-06
8.314596882e-06
2.253296038e-08
4.582692143e-08
6.326156732e-08
7.793381517e-08
9.089061656e-08
1.026446774e-07
1.134969199e-07
1.236440649e-07
1.332247559e-07
1.42342418e-07
1.510777586e-07
1.594960941e-07
1.676518063e-07
1.755911955e-07
1.833543829e-07
1.909768592e-07
1.984906448e-07
2.059254792e-07
2.133101106e-07
2.206720936e-07
2.280357602e-07
2.354086328e-07
2.42798253e-07
2.501954612e-07
2.575624571e-07
2.648574913e-07
2.720500999e-07
2.791797853e-07
2.864497857e-07
2.940667477e-07
3.029476227e-07
3.120829176e-07
3.252811156e-07
3.307841035e-07
3.542132182e-07
3.626046936e-07
1.042282763e-06
2.932611845e-06
7.00729514e-06
8.494683877e-06
2.25420413e-08
4.585118027e-08
6.32953315e-08
7.797746349e-08
9.094450183e-08
1.02709901e-07
1.135754219e-07
1.237388192e-07
1.333400251e-07
1.424840257e-07
1.51253402e-07
1.597156044e-07
1.67927396e-07
1.759376385e-07
1.83789546e-07
1.915221575e-07
1.991725383e-07
2.067770196e-07
2.143710488e-07
2.219869004e-07
2.296544696e-07
2.373379132e-07
2.450455144e-07
2.527280614e-07
2.602783774e-07
2.675528728e-07
2.744932295e-07
2.813211705e-07
2.885316604e-07
2.96045587e-07
3.075845452e-07
3.131118668e-07
3.366187964e-07
3.349061193e-07