/*--------------------------------*- C++ -*----------------------------------*\
| =========                 |                                                 |
| \\      /  F ield         | OpenFOAM: The Open Source CFD Toolbox           |
|  \\    /   O peration     | Version:  v1912                                 |
|   \\  /    A nd           | Website:  www.openfoam.com                      |
|    \\/     M anipulation  |                                                 |
\*---------------------------------------------------------------------------*/
FoamFile
{
    version     2.0;
    format      ascii;
    class       volScalarField;
    location    "0.7";
    object      p_rgh_0;
}
// * * * * * * * * * * * * * * * * * * * * * * * * * * * * * * * * * * * * * //

dimensions      [1 -1 -2 0 0 0 0];


internalField   nonuniform List<scalar> 
4800
(
102866.1799
102866.179
102866.177
102866.1738
102866.1696
102866.1643
102866.158
102866.1507
102866.1425
102866.1334
102866.1235
102866.1129
102866.1015
102866.0896
102866.0771
102866.0642
102866.0509
102866.0374
102866.0236
102866.0098
102865.9959
102865.9822
102865.9686
102865.9552
102865.9423
102865.9297
102865.9176
102865.9061
102865.8952
102865.8849
102865.8753
102865.8664
102865.8582
102865.8505
102865.8435
102865.8367
102865.8312
102865.8209
102865.8312
102865.7092
102858.8243
102858.8234
102858.8214
102858.8182
102858.8139
102858.8086
102858.8023
102858.795
102858.7868
102858.7777
102858.7677
102858.757
102858.7457
102858.7337
102858.7212
102858.7082
102858.6949
102858.6813
102858.6675
102858.6536
102858.6397
102858.6259
102858.6123
102858.5989
102858.5859
102858.5733
102858.5611
102858.5496
102858.5386
102858.5283
102858.5187
102858.5098
102858.5016
102858.494
102858.487
102858.4803
102858.4747
102858.466
102858.4694
102858.2504
102851.4694
102851.4685
102851.4665
102851.4633
102851.459
102851.4537
102851.4473
102851.4399
102851.4317
102851.4225
102851.4125
102851.4017
102851.3903
102851.3782
102851.3656
102851.3526
102851.3392
102851.3254
102851.3116
102851.2976
102851.2836
102851.2697
102851.2559
102851.2425
102851.2294
102851.2167
102851.2045
102851.1929
102851.1818
102851.1715
102851.1618
102851.1529
102851.1447
102851.1371
102851.1302
102851.1237
102851.1182
102851.1115
102851.1064
102850.6518
102844.1152
102844.1144
102844.1123
102844.1091
102844.1048
102844.0994
102844.0929
102844.0855
102844.0772
102844.0679
102844.0578
102844.0469
102844.0354
102844.0232
102844.0105
102843.9973
102843.9837
102843.9698
102843.9558
102843.9417
102843.9275
102843.9135
102843.8996
102843.886
102843.8727
102843.8599
102843.8476
102843.8359
102843.8248
102843.8143
102843.8046
102843.7957
102843.7874
102843.7799
102843.7731
102843.7669
102843.7616
102843.7561
102843.739
102842.9948
102836.7617
102836.7609
102836.7588
102836.7556
102836.7512
102836.7458
102836.7392
102836.7317
102836.7232
102836.7139
102836.7036
102836.6926
102836.6809
102836.6686
102836.6556
102836.6423
102836.6285
102836.6145
102836.6002
102836.5859
102836.5716
102836.5573
102836.5432
102836.5294
102836.516
102836.503
102836.4905
102836.4786
102836.4674
102836.4569
102836.4471
102836.4381
102836.4298
102836.4223
102836.4156
102836.4096
102836.4046
102836.3999
102836.3647
102835.2889
102829.4089
102829.4082
102829.4061
102829.4028
102829.3984
102829.3928
102829.3862
102829.3786
102829.3699
102829.3604
102829.35
102829.3388
102829.3269
102829.3144
102829.3012
102829.2876
102829.2736
102829.2593
102829.2449
102829.2303
102829.2157
102829.2011
102829.1868
102829.1728
102829.1591
102829.1459
102829.1332
102829.1212
102829.1098
102829.0991
102829.0892
102829.0801
102829.0718
102829.0644
102829.0578
102829.0519
102829.047
102829.0427
102828.9868
102827.5408
102822.0569
102822.0562
102822.0541
102822.0508
102822.0462
102822.0406
102822.0338
102822.0261
102822.0173
102822.0076
102821.997
102821.9855
102821.9734
102821.9606
102821.9472
102821.9333
102821.919
102821.9044
102821.8897
102821.8748
102821.8598
102821.845
102821.8304
102821.8161
102821.8021
102821.7886
102821.7757
102821.7634
102821.7518
102821.741
102821.731
102821.7218
102821.7135
102821.706
102821.6995
102821.6937
102821.6889
102821.6848
102821.5987
102819.7599
102814.7057
102814.705
102814.7029
102814.6994
102814.6948
102814.6891
102814.6822
102814.6742
102814.6652
102814.6553
102814.6445
102814.6328
102814.6204
102814.6073
102814.5936
102814.5794
102814.5647
102814.5498
102814.5346
102814.5194
102814.5041
102814.4889
102814.474
102814.4593
102814.445
102814.4312
102814.418
102814.4054
102814.3936
102814.3825
102814.3724
102814.3631
102814.3547
102814.3472
102814.3408
102814.3352
102814.3305
102814.3269
102814.1977
102811.9514
102807.3553
102807.3546
102807.3524
102807.3489
102807.3442
102807.3383
102807.3312
102807.3231
102807.3139
102807.3037
102807.2926
102807.2806
102807.2679
102807.2544
102807.2403
102807.2258
102807.2107
102807.1954
102807.1798
102807.1642
102807.1485
102807.1329
102807.1175
102807.1024
102807.0877
102807.0736
102807.06
102807.0471
102807.035
102807.0237
102807.0134
102807.0039
102806.9955
102806.988
102806.9816
102806.9761
102806.9717
102806.9689
102806.788
102804.1198
102800.0056
102800.005
102800.0027
102799.9992
102799.9943
102799.9882
102799.981
102799.9726
102799.9632
102799.9527
102799.9413
102799.929
102799.9159
102799.902
102799.8876
102799.8725
102799.8571
102799.8413
102799.8253
102799.8091
102799.7929
102799.7769
102799.761
102799.7455
102799.7304
102799.7158
102799.7018
102799.6886
102799.6761
102799.6646
102799.654
102799.6444
102799.6358
102799.6283
102799.6219
102799.6166
102799.6125
102799.6102
102799.3696
102796.2687
102792.6568
102792.6562
102792.6539
102792.6502
102792.6452
102792.639
102792.6315
102792.6229
102792.6132
102792.6024
102792.5906
102792.5779
102792.5644
102792.5501
102792.5352
102792.5197
102792.5038
102792.4874
102792.4709
102792.4542
102792.4375
102792.4209
102792.4045
102792.3885
102792.3728
102792.3578
102792.3434
102792.3297
102792.3169
102792.305
102792.2941
102792.2843
102792.2756
102792.2681
102792.2617
102792.2565
102792.2526
102792.2507
102791.9438
102788.3994
102785.3089
102785.3083
102785.3059
102785.3021
102785.297
102785.2905
102785.2828
102785.274
102785.2639
102785.2528
102785.2406
102785.2275
102785.2135
102785.1988
102785.1833
102785.1673
102785.1508
102785.1339
102785.1168
102785.0995
102785.0822
102785.065
102785.048
102785.0313
102785.0152
102784.9996
102784.9847
102784.9706
102784.9573
102784.9451
102784.9339
102784.9238
102784.9149
102784.9073
102784.9009
102784.8958
102784.8921
102784.8905
102784.5096
102780.5128
102777.9618
102777.9612
102777.9588
102777.9549
102777.9496
102777.9429
102777.935
102777.9258
102777.9154
102777.9039
102777.8913
102777.8777
102777.8632
102777.8479
102777.8319
102777.8153
102777.7982
102777.7807
102777.7629
102777.7449
102777.7269
102777.7091
102777.6914
102777.6742
102777.6574
102777.6412
102777.6257
102777.6111
102777.5974
102777.5847
102777.5732
102777.5628
102777.5537
102777.5459
102777.5395
102777.5344
102777.5309
102777.5293
102777.0672
102772.6097
102770.6157
102770.6151
102770.6126
102770.6086
102770.6031
102770.5962
102770.5879
102770.5784
102770.5676
102770.5557
102770.5426
102770.5286
102770.5135
102770.4977
102770.481
102770.4638
102770.446
102770.4277
102770.4092
102770.3906
102770.3719
102770.3533
102770.3349
102770.3169
102770.2994
102770.2826
102770.2665
102770.2513
102770.237
102770.2239
102770.2119
102770.2013
102770.1919
102770.184
102770.1775
102770.1724
102770.169
102770.167
102769.6164
102764.6912
102763.2705
102763.2699
102763.2674
102763.2632
102763.2575
102763.2503
102763.2418
102763.2319
102763.2207
102763.2083
102763.1948
102763.1801
102763.1645
102763.148
102763.1307
102763.1127
102763.0941
102763.0752
102763.0559
102763.0364
102763.0169
102762.9975
102762.9783
102762.9596
102762.9413
102762.9237
102762.9069
102762.8911
102762.8763
102762.8626
102762.8502
102762.8392
102762.8295
102762.8214
102762.8148
102762.8097
102762.8064
102762.8038
102762.1572
102756.7587
102755.9264
102755.9258
102755.9231
102755.9188
102755.9129
102755.9054
102755.8966
102755.8863
102755.8747
102755.8618
102755.8476
102755.8324
102755.8161
102755.7989
102755.7809
102755.7621
102755.7428
102755.7229
102755.7028
102755.6825
102755.6621
102755.6418
102755.6218
102755.6021
102755.5831
102755.5647
102755.5471
102755.5306
102755.5151
102755.5008
102755.4879
102755.4765
102755.4665
102755.4581
102755.4514
102755.4463
102755.4431
102755.4398
102754.6893
102748.8135
102748.5833
102748.5827
102748.5799
102748.5754
102748.5693
102748.5615
102748.5523
102748.5416
102748.5295
102748.516
102748.5013
102748.4854
102748.4685
102748.4505
102748.4317
102748.4121
102748.3918
102748.3711
102748.35
102748.3287
102748.3074
102748.2862
102748.2652
102748.2446
102748.2246
102748.2054
102748.187
102748.1696
102748.1535
102748.1386
102748.1251
102748.1131
102748.1028
102748.0942
102748.0873
102748.0821
102748.079
102748.0745
102747.2126
102740.8567
102741.2412
102741.2407
102741.2378
102741.2331
102741.2267
102741.2187
102741.209
102741.1979
102741.1853
102741.1712
102741.1559
102741.1393
102741.1215
102741.1028
102741.0831
102741.0626
102741.0414
102741.0197
102740.9976
102740.9753
102740.9529
102740.9306
102740.9086
102740.887
102740.866
102740.8458
102740.8265
102740.8083
102740.7914
102740.7758
102740.7617
102740.7492
102740.7384
102740.7294
102740.7223
102740.7171
102740.714
102740.7078
102739.7274
102732.8892
102733.9004
102733.8998
102733.8968
102733.8919
102733.8853
102733.8769
102733.8668
102733.8552
102733.842
102733.8274
102733.8113
102733.794
102733.7754
102733.7558
102733.7351
102733.7136
102733.6914
102733.6687
102733.6455
102733.6221
102733.5986
102733.5752
102733.552
102733.5293
102733.5073
102733.486
102733.4657
102733.4466
102733.4288
102733.4124
102733.3976
102733.3845
102733.3732
102733.3639
102733.3565
102733.3512
102733.3481
102733.3399
102732.2333
102724.9113
102726.5607
102726.5601
102726.557
102726.5519
102726.545
102726.5362
102726.5258
102726.5136
102726.4998
102726.4845
102726.4677
102726.4496
102726.4301
102726.4095
102726.3879
102726.3653
102726.342
102726.3181
102726.2938
102726.2691
102726.2444
102726.2198
102726.1954
102726.1715
102726.1483
102726.1259
102726.1046
102726.0844
102726.0656
102726.0484
102726.0328
102726.0191
102726.0073
102725.9975
102725.9899
102725.9844
102725.9813
102725.9708
102724.7304
102716.9235
102719.2223
102719.2217
102719.2185
102719.2132
102719.2059
102719.1968
102719.1858
102719.1731
102719.1587
102719.1427
102719.1251
102719.1061
102719.0857
102719.0641
102719.0414
102719.0177
102718.9932
102718.968
102718.9424
102718.9165
102718.8905
102718.8645
102718.8389
102718.8137
102718.7892
102718.7656
102718.743
102718.7217
102718.7019
102718.6837
102718.6673
102718.6528
102718.6404
102718.6302
102718.6222
102718.6165
102718.6134
102718.6001
102717.2187
102708.9258
102711.8852
102711.8847
102711.8813
102711.8757
102711.8681
102711.8586
102711.8471
102711.8339
102711.8188
102711.802
102711.7836
102711.7636
102711.7422
102711.7195
102711.6956
102711.6707
102711.645
102711.6185
102711.5915
102711.5642
102711.5367
102711.5094
102711.4823
102711.4557
102711.4298
102711.4049
102711.3811
102711.3586
102711.3376
102711.3184
102711.3011
102711.2858
102711.2727
102711.2619
102711.2536
102711.2477
102711.2445
102711.2279
102709.6981
102700.9181
102704.5496
102704.549
102704.5455
102704.5397
102704.5317
102704.5217
102704.5098
102704.4958
102704.48
102704.4624
102704.4431
102704.4222
102704.3997
102704.3759
102704.3507
102704.3245
102704.2974
102704.2695
102704.241
102704.2122
102704.1832
102704.1543
102704.1257
102704.0976
102704.0702
102704.0439
102704.0187
102703.9949
102703.9727
102703.9523
102703.934
102703.9178
102703.904
102703.8926
102703.8839
102703.8777
102703.8746
102703.8541
102702.1685
102692.9006
102697.2153
102697.2148
102697.2111
102697.205
102697.1967
102697.1863
102697.1737
102697.1592
102697.1426
102697.1241
102697.1039
102697.0819
102697.0583
102697.0332
102697.0067
102696.9791
102696.9505
102696.9211
102696.891
102696.8606
102696.8299
102696.7994
102696.7691
102696.7394
102696.7104
102696.6825
102696.6558
102696.6306
102696.6071
102696.5855
102696.566
102696.5489
102696.5342
102696.5222
102696.5129
102696.5066
102696.5036
102696.4789
102694.6296
102684.8734
102689.8827
102689.8821
102689.8782
102689.8719
102689.8632
102689.8523
102689.8392
102689.8239
102689.8065
102689.7872
102689.7659
102689.7427
102689.7179
102689.6915
102689.6636
102689.6345
102689.6043
102689.5732
102689.5415
102689.5093
102689.4769
102689.4446
102689.4125
102689.381
102689.3504
102689.3208
102689.2925
102689.2657
102689.2408
102689.2179
102689.1972
102689.179
102689.1634
102689.1506
102689.1408
102689.134
102689.1308
102689.101
102687.0826
102676.8372
102682.5517
102682.551
102682.547
102682.5404
102682.5313
102682.5199
102682.5061
102682.4901
102682.4719
102682.4516
102682.4292
102682.4049
102682.3787
102682.3509
102682.3215
102682.2908
102682.2589
102682.2261
102682.1925
102682.1584
102682.1242
102682.0899
102682.0559
102682.0226
102681.99
102681.9586
102681.9286
102681.9002
102681.8737
102681.8493
102681.8273
102681.8079
102681.7913
102681.7777
102681.7672
102681.7599
102681.7562
102681.7202
102679.5274
102668.7918
102675.2223
102675.2217
102675.2175
102675.2106
102675.2011
102675.1891
102675.1747
102675.1579
102675.1388
102675.1175
102675.094
102675.0684
102675.0408
102675.0115
102674.9805
102674.9481
102674.9144
102674.8796
102674.8441
102674.808
102674.7717
102674.7354
102674.6993
102674.6639
102674.6294
102674.596
102674.5641
102674.534
102674.5058
102674.4799
102674.4564
102674.4358
102674.418
102674.4035
102674.3922
102674.3844
102674.3803
102674.3376
102671.9622
102660.7363
102667.8948
102667.8942
102667.8898
102667.8825
102667.8726
102667.8601
102667.845
102667.8274
102667.8074
102667.785
102667.7602
102667.7333
102667.7043
102667.6733
102667.6406
102667.6063
102667.5707
102667.5339
102667.4962
102667.458
102667.4195
102667.3809
102667.3427
102667.3051
102667.2684
102667.233
102667.1991
102667.167
102667.137
102667.1094
102667.0844
102667.0623
102667.0434
102667.0278
102667.0157
102667.0073
102667.0027
102666.9524
102664.3876
102652.6704
102660.5692
102660.5685
102660.564
102660.5564
102660.546
102660.5329
102660.5171
102660.4987
102660.4777
102660.4541
102660.4281
102660.3997
102660.3692
102660.3365
102660.3019
102660.2656
102660.2279
102660.1889
102660.149
102660.1085
102660.0676
102660.0267
102659.9861
102659.9461
102659.9071
102659.8694
102659.8334
102659.7992
102659.7673
102659.7378
102659.7112
102659.6876
102659.6673
102659.6506
102659.6376
102659.6284
102659.6234
102659.5646
102656.8033
102644.5937
102653.2457
102653.2449
102653.2401
102653.2322
102653.2214
102653.2077
102653.1912
102653.1718
102653.1498
102653.125
102653.0977
102653.0678
102653.0356
102653.0011
102652.9645
102652.9261
102652.8861
102652.8448
102652.8025
102652.7594
102652.716
102652.6725
102652.6293
102652.5869
102652.5454
102652.5053
102652.4669
102652.4305
102652.3965
102652.3651
102652.3366
102652.3113
102652.2896
102652.2716
102652.2576
102652.2478
102652.2422
102652.1741
102649.2091
102636.5057
102645.9242
102645.9234
102645.9184
102645.9102
102645.8988
102645.8845
102645.8672
102645.847
102645.8239
102645.7979
102645.7691
102645.7376
102645.7036
102645.6672
102645.6285
102645.5878
102645.5454
102645.5016
102645.4566
102645.4109
102645.3647
102645.3184
102645.2725
102645.2273
102645.1832
102645.1405
102645.0997
102645.0609
102645.0246
102644.9911
102644.9606
102644.9336
102644.9102
102644.8909
102644.8758
102644.8653
102644.8593
102644.7811
102641.6052
102628.4064
102638.605
102638.6041
102638.5989
102638.5903
102638.5785
102638.5635
102638.5455
102638.5243
102638.5
102638.4727
102638.4425
102638.4093
102638.3734
102638.3349
102638.294
102638.2509
102638.2059
102638.1593
102638.1115
102638.0629
102638.0137
102637.9645
102637.9156
102637.8675
102637.8205
102637.7751
102637.7315
102637.6902
102637.6515
102637.6156
102637.5831
102637.5541
102637.529
102637.5082
102637.4919
102637.4805
102637.4744
102637.3861
102633.9911
102620.2959
102631.2881
102631.2872
102631.2817
102631.2728
102631.2605
102631.2449
102631.226
102631.2038
102631.1784
102631.1498
102631.1179
102631.083
102631.0451
102631.0043
102630.961
102630.9153
102630.8675
102630.818
102630.7672
102630.7154
102630.663
102630.6106
102630.5585
102630.5073
102630.4572
102630.4088
102630.3624
102630.3183
102630.277
102630.2387
102630.2039
102630.1727
102630.1458
102630.1233
102630.1057
102630.0932
102630.0863
102629.9868
102626.37
102612.1757
102623.9737
102623.9727
102623.967
102623.9577
102623.9449
102623.9287
102623.909
102623.8858
102623.8592
102623.8291
102623.7956
102623.7588
102623.7188
102623.6757
102623.6298
102623.5813
102623.5305
102623.4778
102623.4237
102623.3685
102623.3127
102623.2568
102623.2013
102623.1466
102623.0932
102623.0416
102622.9922
102622.9452
102622.9011
102622.8602
102622.8228
102622.7894
102622.7603
102622.736
102622.7169
102622.7032
102622.695
102622.5825
102618.7427
102604.0462
102616.6618
102616.6608
102616.6549
102616.6452
102616.6319
102616.6151
102616.5945
102616.5704
102616.5425
102616.511
102616.4758
102616.437
102616.3947
102616.3491
102616.3004
102616.2488
102616.1948
102616.1388
102616.081
102616.0221
102615.9626
102615.9029
102615.8437
102615.7854
102615.7285
102615.6734
102615.6207
102615.5706
102615.5236
102615.4798
102615.4397
102615.4037
102615.3724
102615.3461
102615.3253
102615.3104
102615.3012
102615.1757
102611.1055
102595.9068
102609.3527
102609.3516
102609.3455
102609.3355
102609.3217
102609.3042
102609.2828
102609.2576
102609.2285
102609.1955
102609.1585
102609.1176
102609.0729
102609.0246
102608.9729
102608.9182
102608.8607
102608.8009
102608.7393
102608.6764
102608.6128
102608.549
102608.4858
102608.4235
102608.3628
102608.3041
102608.2479
102608.1945
102608.1442
102608.0974
102608.0544
102608.0156
102607.9817
102607.9532
102607.9307
102607.9145
102607.9043
102607.7653
102603.4595
102587.7573
102602.0464
102602.0452
102602.0389
102602.0286
102602.0143
102601.9962
102601.9741
102601.9478
102601.9175
102601.8828
102601.844
102601.8009
102601.7537
102601.7026
102601.6477
102601.5894
102601.5281
102601.4643
102601.3985
102601.3312
102601.2632
102601.195
102601.1273
102601.0608
102600.996
102600.9334
102600.8735
102600.8166
102600.763
102600.7128
102600.6666
102600.6248
102600.588
102600.557
102600.5325
102600.5149
102600.5038
102600.351
102595.8047
102579.5979
102594.7431
102594.7417
102594.7353
102594.7247
102594.71
102594.6913
102594.6684
102594.6412
102594.6095
102594.5733
102594.5325
102594.4872
102594.4373
102594.3831
102594.3248
102594.2627
102594.1973
102594.1291
102594.0587
102593.9867
102593.9138
102593.8408
102593.7683
102593.6972
102593.6279
102593.5612
102593.4973
102593.4367
102593.3795
102593.3258
102593.2761
102593.2308
102593.1907
102593.1569
102593.1301
102593.1111
102593.099
102592.9324
102588.1412
102571.4283
102587.4428
102587.4414
102587.4347
102587.4239
102587.4089
102587.3896
102587.366
102587.3378
102587.3049
102587.2671
102587.2244
102587.1766
102587.1239
102587.0664
102587.0044
102586.9382
102586.8684
102586.7954
102586.7199
102586.6427
102586.5646
102586.4862
102586.4086
102586.3324
102586.2583
102586.1871
102586.1191
102586.0546
102585.9936
102585.9362
102585.8825
102585.8333
102585.7894
102585.7522
102585.723
102585.7023
102585.6892
102585.5093
102580.4688
102563.2484
102580.1457
102580.1441
102580.1374
102580.1263
102580.111
102580.0914
102580.0671
102580.038
102580.0039
102579.9645
102579.9197
102579.8695
102579.8138
102579.7528
102579.6868
102579.6162
102579.5414
102579.4632
102579.3822
102579.2993
102579.2153
102579.1312
102579.0478
102578.9661
102578.887
102578.811
102578.7386
102578.67
102578.6051
102578.5435
102578.4855
102578.4317
102578.3833
102578.3422
102578.31
102578.2877
102578.2732
102578.0814
102572.7879
102555.0578
102572.8518
102572.8502
102572.8433
102572.8322
102572.8167
102572.7967
102572.7719
102572.742
102572.7067
102572.6658
102572.6189
102572.5661
102572.5073
102572.4425
102572.3723
102572.2968
102572.2167
102572.1328
102572.0457
102571.9565
102571.8661
102571.7755
102571.6858
102571.5982
102571.5134
102571.4324
102571.3555
102571.2828
102571.2137
102571.1478
102571.0848
102571.0255
102570.9716
102570.9256
102570.89
102570.8658
102570.8502
102570.6484
102565.0993
102546.8562
102565.5613
102565.5595
102565.5526
102565.5415
102565.5259
102565.5058
102565.4806
102565.45
102565.4137
102565.3713
102565.3224
102565.2668
102565.2047
102565.136
102565.0611
102564.9803
102564.8944
102564.8041
102564.7104
102564.6141
102564.5166
102564.4189
102564.3223
102564.228
102564.1373
102564.0509
102563.9694
102563.8925
102563.8193
102563.7487
102563.68
102563.614
102563.5529
102563.5008
102563.4611
102563.4347
102563.4189
102563.2084
102557.4047
102538.6437
102558.274
102558.2722
102558.2654
102558.2543
102558.2389
102558.2187
102558.1934
102558.1624
102558.1252
102558.0813
102558.0303
102557.9721
102557.9065
102557.8335
102557.7536
102557.6671
102557.5747
102557.4775
102557.3763
102557.2723
102557.1668
102557.0612
102556.9568
102556.8552
102556.7579
102556.666
102556.5798
102556.499
102556.4218
102556.3462
102556.2707
102556.1961
102556.1257
102556.0652
102556.0202
102555.9915
102555.9765
102555.7614
102549.7055
102530.4208
102550.99
102550.9881
102550.9815
102550.9708
102550.9556
102550.9357
102550.9105
102550.8793
102550.8414
102550.7963
102550.7433
102550.6823
102550.613
102550.5355
102550.4501
102550.3574
102550.258
102550.1529
102550.0435
102549.9308
102549.8164
102549.7019
102549.5888
102549.4791
102549.3746
102549.2768
102549.1863
102549.1022
102549.0215
102548.9407
102548.857
102548.7709
102548.6874
102548.6153
102548.5628
102548.5317
102548.5198
102548.3059
102542.0038
102522.1883
102543.7093
102543.7074
102543.7011
102543.6908
102543.6762
102543.6569
102543.6321
102543.601
102543.5628
102543.5166
102543.4618
102543.398
102543.3249
102543.2425
102543.1512
102543.0516
102542.9444
102542.8308
102542.7121
102542.5897
102542.4653
102542.3406
102542.2176
102542.0987
102541.9863
102541.8825
102541.7882
102541.7019
102541.6188
102541.5327
102541.4387
102541.337
102541.2345
102541.1451
102541.082
102541.0489
102541.0436
102540.8393
102534.3002
102513.9477
102536.4316
102536.4297
102536.4238
102536.4143
102536.4007
102536.3824
102536.3585
102536.3279
102536.2897
102536.2428
102536.1863
102536.1197
102536.0426
102535.9551
102535.8574
102535.7502
102535.6343
102535.5111
102535.3821
102535.2488
102535.1131
102534.9769
102534.8426
102534.7132
102534.5919
102534.482
102534.3852
102534.2991
102534.2156
102534.1238
102534.0158
102533.8915
102533.7606
102533.6447
102533.5663
102533.5319
102533.5391
102533.3493
102526.6025
102505.7014
102529.1567
102529.1549
102529.1497
102529.1411
102529.1289
102529.1121
102529.0897
102529.0603
102529.0226
102528.9753
102528.9174
102528.848
102528.7669
102528.6738
102528.5692
102528.4536
102528.3282
102528.1944
102528.0538
102527.9084
102527.7598
102527.6104
102527.4628
102527.3209
102527.1896
102527.0738
102526.9767
102526.8945
102526.8149
102526.7176
102526.5894
102526.4302
102526.2551
102526.0967
102525.9954
102525.9627
102525.994
102525.8382
102518.897
102497.4503
102521.8842
102521.8826
102521.8782
102521.871
102521.8606
102521.846
102521.8258
102521.7983
102521.7618
102521.7147
102521.6557
102521.5838
102521.4984
102521.3995
102521.2872
102521.1624
102521.0264
102520.8809
102520.7276
102520.5685
102520.4055
102520.2406
102520.0769
102519.9193
102519.7753
102519.654
102519.5613
102519.4926
102519.4264
102519.3279
102519.1713
102518.9556
102518.7044
102518.4738
102518.3349
102518.3115
102518.3926
102518.3026
102511.1976
102489.1999
102514.6137
102514.6124
102514.609
102514.6036
102514.5956
102514.584
102514.5669
102514.5423
102514.5078
102514.4616
102514.402
102514.3277
102514.238
102514.1328
102514.0122
102513.8774
102513.7297
102513.5711
102513.4037
102513.2291
102513.0492
102512.8659
102512.6828
102512.5058
102512.3461
102512.2204
102512.1415
102512.1025
102512.0653
102511.9742
102511.7838
102511.4814
102511.0639
102510.6808
102510.5095
102510.5335
102510.7159
102510.738
102503.5161
102480.9598
102507.3447
102507.3437
102507.3415
102507.3382
102507.3334
102507.3257
102507.313
102507.2925
102507.2613
102507.2168
102507.1571
102507.0807
102506.9866
102506.8746
102506.745
102506.599
102506.4382
102506.265
102506.0817
102505.8904
102505.6928
102505.4908
102505.2867
102505.0866
102504.9074
102504.7765
102504.7172
102504.7259
102504.7431
102504.6786
102504.4492
102503.8795
102502.7181
102502.0022
102502.024
102502.4504
102502.9358
102503.1404
102495.8187
102472.756
102500.0763
102500.0758
102500.0748
102500.074
102500.0732
102500.0708
102500.064
102500.0491
102500.0225
102499.9809
102499.9219
102499.8437
102499.7452
102499.6259
102499.4863
102499.3276
102499.1521
102498.9634
102498.7647
102498.5587
102498.3472
102498.13
102497.9051
102497.6759
102497.4657
102497.3192
102497.2807
102497.3564
102497.4541
102497.4246
102496.8556
102495.2223
102493.6732
102492.9273
102492.6057
102493.6569
102495.0059
102495.4953
102488.0929
102464.6338
102492.8078
102492.8079
102492.8079
102492.8098
102492.8139
102492.8185
102492.8196
102492.8124
102492.7921
102492.7547
102492.6973
102492.6179
102492.5148
102492.3877
102492.2368
102492.0645
102491.8748
102491.6724
102491.4617
102491.2454
102491.0256
102490.7988
102490.5535
102490.2835
102490.0223
102489.8459
102489.83
102489.9908
102490.1632
102489.6939
102487.8549
102486.3394
102485.9246
102485.1524
102484.2568
102484.47
102486.8581
102487.8582
102480.2803
102456.6711
102485.5388
102485.539
102485.5395
102485.5439
102485.554
102485.5676
102485.5793
102485.5824
102485.5706
102485.5391
102485.4844
102485.4043
102485.297
102485.1619
102485.0001
102484.8158
102484.6145
102484.4011
102484.1791
102483.9533
102483.7287
102483.4895
102483.1884
102482.8187
102482.4913
102482.3366
102482.3872
102482.6091
102482.188
102480.2784
102478.9383
102478.758
102478.7798
102477.7677
102476.5735
102476.6208
102478.9448
102480.352
102472.1521
102449.095
102478.269
102478.2685
102478.2678
102478.274
102478.2912
102478.3167
102478.3426
102478.3594
102478.3589
102478.3353
102478.2849
102478.2054
102478.0953
102477.9537
102477.7826
102477.5873
102477.3723
102477.1402
102476.8907
102476.6268
102476.3354
102475.9185
102475.3361
102474.8414
102474.5841
102474.6376
102474.7332
102474.2047
102472.226
102470.7828
102470.3711
102471.2864
102471.1747
102470.258
102469.3252
102469.5919
102471.4948
102473.1099
102463.5747
102442.117
102470.9991
102470.9965
102470.9911
102470.9969
102471.0227
102471.0641
102471.1092
102471.1443
102471.1585
102471.1453
102471.1013
102471.0245
102470.9116
102470.7556
102470.5502
102470.2956
102469.9908
102469.6277
102469.1943
102468.6541
102467.8644
102466.811
102465.9882
102465.6007
102465.6911
102465.8183
102465.5959
102463.5985
102461.4695
102460.2272
102459.3525
102459.5551
102460.6188
102461.9037
102462.5247
102463.4886
102464.7543
102465.7994
102454.6378
102435.8496
102463.7319
102463.7234
102463.7073
102463.7109
102463.7462
102463.808
102463.8779
102463.9351
102463.9636
102463.9518
102463.8866
102463.7438
102463.4801
102463.0483
102462.4614
102461.7997
102461.0907
102460.2659
102459.2355
102457.8744
102456.1841
102454.7223
102453.9961
102453.7479
102454.0186
102454.1694
102453.4098
102450.7208
102447.7757
102444.188
102439.6116
102436.0242
102437.6197
102446.3259
102452.5171
102456.2609
102458.0387
102457.5622
102445.5723
102430.2894
102456.4058
102456.3728
102456.3107
102456.2706
102456.2705
102456.2949
102456.2976
102456.2122
102455.9586
102455.4423
102454.5748
102453.3173
102451.7272
102450.0412
102448.5905
102447.4419
102446.3263
102444.9231
102443.1196
102441.0151
102438.9635
102437.4908
102436.7801
102436.5523
102436.9512
102437.2654
102436.7288
102432.6125
102426.379
102415.9996
102401.3774
102387.8622
102382.0885
102401.2511
102428.0396
102442.4006
102447.3184
102448.0197
102436.8454
102425.1312
102441.3184
102440.9899
102439.9358
102438.7419
102437.6849
102436.6878
102435.4302
102433.5567
102430.9008
102427.6142
102424.164
102421.0741
102418.7106
102417.3525
102416.847
102416.6024
102415.8904
102414.3992
102412.6831
102410.992
102409.3453
102407.8838
102406.9447
102406.6223
102407.4563
102408.4745
102408.9984
102403.4129
102391.4626
102371.6823
102341.6981
102309.1976
102289.6472
102290.6633
102357.7441
102409.4401
102432.296
102437.3787
102428.8739
102419.4249
102327.7757
102327.9095
102324.6622
102322.1354
102321.8805
102323.5282
102325.7006
102327.1858
102328.0207
102328.8597
102330.2949
102332.6665
102335.3591
102337.346
102338.3238
102338.5379
102338.039
102336.8136
102336.1557
102335.8347
102335.4727
102334.2698
102333.0342
102332.5717
102333.9157
102337.5026
102341.2811
102343.6341
102336.753
102312.8538
102276.6241
102227.0113
102181.8674
102164.7651
102215.0455
102316.2504
102397.0353
102423.5633
102420.6603
102410.8189
102108.7954
102111.1039
102112.6074
102116.2552
102122.6617
102131.4694
102141.3433
102150.7513
102158.8908
102165.3297
102169.8351
102172.2695
102172.9159
102172.3333
102170.7928
102169.4969
102168.1867
102166.5887
102165.225
102164.671
102165.5422
102166.1707
102166.2433
102165.1323
102164.5694
102167.7938
102180.771
102196.7989
102213.8052
102222.4832
102212.552
102176.0859
102131.2243
102093.7689
102087.2564
102154.9661
102287.3902
102388.0207
102409.179
102393.7179
102046.3502
102045.0782
102047.2259
102051.0474
102054.5042
102057.1105
102058.7213
102059.4289
102059.5431
102059.3225
102058.4506
102056.9418
102055.036
102052.9209
102050.9025
102049.0804
102047.1543
102044.8519
102042.3712
102040.4248
102039.5588
102039.7877
102040.2001
102040.0936
102037.359
102034.9824
102034.4391
102043.9223
102058.3695
102078.3122
102097.5653
102106.7463
102092.5977
102072.1126
102047.7352
102042.1937
102108.4546
102256.4063
102359.4001
102354.0117
102031.4596
102028.5989
102027.5916
102027.2472
102026.8324
102025.7323