/*--------------------------------*- C++ -*----------------------------------*\
| =========                 |                                                 |
| \\      /  F ield         | OpenFOAM: The Open Source CFD Toolbox           |
|  \\    /   O peration     | Version:  v1912                                 |
|   \\  /    A nd           | Website:  www.openfoam.com                      |
|    \\/     M anipulation  |                                                 |
\*---------------------------------------------------------------------------*/
FoamFile
{
    version     2.0;
    format      ascii;
    class       surfaceScalarField;
    location    "0.7";
    object      phi;
}
// * * * * * * * * * * * * * * * * * * * * * * * * * * * * * * * * * * * * * //

dimensions      [0 3 -1 0 0 0 0];
oriented        oriented;


internalField   nonuniform List<scalar> 
9440
(
1.921253196e-10
-1.921253196e-10
7.758981487e-10
-5.83772862e-10
1.749434799e-09
-9.735367161e-10
3.10947729e-09
-1.360042585e-09
4.851776986e-09
-1.742299811e-09
6.970888376e-09
-2.119111519e-09
9.460174289e-09
-2.489286045e-09
1.231178044e-08
-2.851606274e-09
1.551663378e-08
-3.204853437e-09
1.906444852e-08
-3.547814798e-09
2.294374443e-08
-3.879295915e-09
2.714188739e-08
-4.198142895e-09
3.164515612e-08
-4.503268557e-09
3.643883972e-08
-4.793683322e-09
4.15073714e-08
-5.068531276e-09
4.683450352e-08
-5.327131552e-09
5.240352903e-08
-5.569024778e-09
5.819755464e-08
-5.794024669e-09
6.419983038e-08
-6.002274601e-09
7.039414113e-08
-6.194309369e-09
7.67652655e-08
-6.371122743e-09
8.32995094e-08
-6.534242009e-09
8.99853236e-08
-6.68581203e-09
9.681402074e-08
-6.828694672e-09
1.037806197e-07
-6.966596186e-09
1.108848134e-07
-7.104190611e-09
1.181321619e-07
-7.247345067e-09
1.255355915e-07
-7.403425903e-09
1.331173702e-07
-7.58177464e-09
1.409118087e-07
-7.794434169e-09
1.489694663e-07
-8.057652875e-09
1.57363601e-07
-8.39412971e-09
1.662040701e-07
-8.840463743e-09
1.756421116e-07
-9.438035925e-09
1.860551404e-07
-1.04130229e-08
1.971311432e-07
-1.107599648e-08
2.137055434e-07
-1.657439405e-08
2.096421033e-07
4.063447168e-09
3.637610676e-07
-1.541326123e-07
3.736982022e-07
2.041017523e-10
-3.96227104e-10
8.167291179e-10
-1.196400317e-09
1.837316122e-09
-1.994123858e-09
3.262998168e-09
-2.785724805e-09
5.089675094e-09
-3.568976936e-09
7.312083359e-09
-4.341519987e-09
9.923784635e-09
-5.100987506e-09
1.291712628e-08
-5.844948069e-09
1.628328943e-08
-6.571016665e-09
2.001226237e-08
-7.276787708e-09
2.409285826e-08
-7.959891655e-09
2.851275483e-08
-8.618039149e-09
3.32585589e-08
-9.249072119e-09
3.831590215e-08
-9.851025817e-09
4.366957351e-08
-1.042220162e-08
4.930369398e-08
-1.096125069e-08
5.520193893e-08
-1.146726806e-08
6.134781351e-08
-1.19398972e-08
6.772498605e-08
-1.237944469e-08
7.431768504e-08
-1.278700545e-08
8.11111652e-08
-1.316459954e-08
8.809225022e-08
-1.351532317e-08
9.52499608e-08
-1.384351824e-08
1.025762437e-07
-1.415497265e-08
1.100668234e-07
-1.445717046e-08
1.177221794e-07
-1.475954059e-08
1.255487453e-07
-1.507390429e-08
1.335603861e-07
-1.541505962e-08
1.417802288e-07
-1.580160955e-08
1.502428742e-07
-1.625707122e-08
1.589986074e-07
-1.681337718e-08
1.681190896e-07
-1.751460256e-08
1.777057835e-07
-1.842714771e-08
1.878965738e-07
-1.962881576e-08
1.989356356e-07
-2.145207382e-08
2.107599179e-07
-2.290026703e-08
2.280871736e-07
-3.390163843e-08
2.316779128e-07
4.727184091e-10
2.97382592e-07
-2.198616887e-07
6.826089129e-07
2.049113449e-10
-6.011384746e-10
8.193517633e-10
-1.810840808e-09
1.842274713e-09
-3.017046921e-09
3.271044853e-09
-4.214495091e-09
5.101674995e-09
-5.399607243e-09
7.328969196e-09
-6.568814357e-09
9.94652557e-09
-7.718544037e-09
1.294676804e-08
-8.845190661e-09
1.632089619e-08
-9.945144869e-09
2.005890787e-08
-1.101479937e-08
2.4149614e-08
-1.205059766e-08
2.85806731e-08
-1.304909797e-08
3.333865206e-08
-1.400705064e-08
3.840911839e-08
-1.49214915e-08
4.377676929e-08
-1.578985165e-08
4.942560293e-08
-1.661008318e-08
5.533913746e-08
-1.738080116e-08
6.150068303e-08
-1.810144101e-08
6.789367158e-08
-1.877243114e-08
7.450204964e-08
-1.939538103e-08
8.131073929e-08
-1.997328631e-08
8.830617307e-08
-2.051075365e-08
9.547691022e-08
-2.101425165e-08
1.02814345e-07
-2.149240324e-08
1.103135244e-07
-2.195634514e-08
1.179740834e-07
-2.242009452e-08
1.258013378e-07
-2.290115298e-08
1.338075947e-07
-2.342131037e-08
1.420137578e-07
-2.40077661e-08
1.504511302e-07
-2.469443643e-08
1.591639284e-07
-2.552616785e-08
1.682131124e-07
-2.656377847e-08
1.776802187e-07
-2.789424545e-08
1.876734832e-07
-2.962207129e-08
1.983540567e-07
-3.213263825e-08
2.096787032e-07
-3.422490322e-08
2.237052592e-07
-4.792818401e-08
2.309922829e-07
-6.814302225e-09
2.571118181e-07
-2.460290551e-07
9.528286676e-07
2.055912965e-10
-8.067297952e-10
8.219340392e-10
-2.427183617e-09
1.847683754e-09
-4.04279674e-09
3.280220939e-09
-5.647032407e-09
5.115624942e-09
-7.235011395e-09
7.348748409e-09
-8.801937974e-09
9.973229784e-09
-1.034302555e-08
1.298150092e-08
-1.18534619e-08
1.636476536e-08
-1.332840935e-08
2.011300061e-08
-1.476303457e-08
2.421497054e-08
-1.615256745e-08
2.865825529e-08
-1.749238243e-08
3.342930635e-08
-1.877810124e-08
3.851353284e-08
-2.000571735e-08
4.389542457e-08
-2.117174251e-08
4.955871751e-08
-2.2273375e-08
5.5486607e-08
-2.330868925e-08
6.166201382e-08
-2.427684612e-08
6.806790786e-08
-2.517832314e-08
7.468769413e-08
-2.601516489e-08
8.150566507e-08
-2.679125446e-08
8.850752357e-08
-2.751260895e-08
9.568098124e-08
-2.81877057e-08
1.030164351e-07
-2.882785299e-08
1.105077399e-07
-2.944764549e-08
1.181530864e-07
-3.0065436e-08
1.259559423e-07
-3.070400346e-08
1.339261504e-07
-3.139151258e-08
1.420811603e-07
-3.216276953e-08
1.504476057e-07
-3.306087506e-08
1.590617319e-07
-3.414028671e-08
1.679709989e-07
-3.547303772e-08
1.77234381e-07
-3.715761932e-08
1.86919888e-07
-3.930756955e-08
1.970894321e-07
-4.230217369e-08
2.077054205e-07
-4.484088205e-08
2.187894085e-07
-5.901215921e-08
2.283580915e-07
-1.638298298e-08
2.399340417e-07
-2.57672281e-07
1.207135094e-06
2.063927742e-10
-1.013122592e-09
8.250484115e-10
-3.045839316e-09
1.854471198e-09
-5.072219621e-09
3.292019053e-09
-7.08458038e-09
5.133811789e-09
-9.076804262e-09
7.374747274e-09
-1.104287359e-08
1.000850228e-08
-1.297678067e-08
1.302752629e-08
-1.487248598e-08
1.642302355e-08
-1.672390663e-08
2.018494498e-08
-1.852495593e-08
2.430199315e-08
-2.026961543e-08
2.876164494e-08
-2.195203391e-08
3.355019879e-08
-2.356665462e-08
3.865285278e-08
-2.510837067e-08
4.405381956e-08
-2.65727084e-08
4.973648374e-08
-2.795603804e-08
5.568360722e-08
-2.925581132e-08
6.187758737e-08
-3.047082455e-08
6.830077265e-08
-3.160150637e-08
7.493583951e-08
-3.265022934e-08
8.176623354e-08
-3.362164571e-08
8.877667785e-08
-3.452305008e-08
9.595374958e-08
-3.536477384e-08
1.032865225e-07
-3.616062192e-08
1.107672758e-07
-3.692839423e-08
1.183923152e-07
-3.769047053e-08
1.261627562e-07
-3.847443911e-08
1.340853956e-07
-3.931414607e-08
1.421735697e-07
-4.025093736e-08
1.504480551e-07
-4.133535365e-08
1.589372146e-07
-4.262943899e-08
1.676753045e-07
-4.421112001e-08
1.767000651e-07
-4.618237186e-08
1.860465263e-07
-4.865402201e-08
1.95703187e-07
-5.195882589e-08
2.057000274e-07
-5.483771416e-08
2.14928873e-07
-6.824099077e-08
2.251982942e-07
-2.665240115e-08
2.28450051e-07
-2.610099418e-07
1.450788866e-06
2.073310816e-10
-1.220453694e-09
8.287449828e-10
-3.667253272e-09
1.862667719e-09
-6.106142439e-09
3.306439446e-09
-8.52835221e-09
5.156210202e-09
-1.092657513e-08
7.406921962e-09
-1.329358546e-08
1.005229194e-08
-1.562215072e-08
1.308479355e-08
-1.790498763e-08
1.649563271e-08
-2.013474578e-08
2.027472964e-08
-2.230405276e-08
2.441071392e-08
-2.44055995e-08
2.889093723e-08
-2.643225688e-08
3.370151037e-08
-2.837722724e-08
3.88273708e-08
-3.02342304e-08
4.425238723e-08
-3.199772391e-08
4.995950689e-08
-3.366315653e-08
5.593095083e-08
-3.522725381e-08
6.21484625e-08
-3.668833447e-08
6.859361345e-08
-3.804665526e-08
7.524816954e-08
-3.930478302e-08
8.209451987e-08
-4.046799325e-08
8.91161687e-08
-4.154469573e-08
9.629828925e-08
-4.254689081e-08
1.036283334e-07
-4.349066209e-08
1.11096672e-07
-4.439672836e-08
1.186973604e-07
-4.529115403e-08
1.264287893e-07
-4.620586267e-08
1.342943512e-07
-4.717970214e-08
1.423029864e-07
-4.825956629e-08
1.504694983e-07
-4.950185883e-08
1.588144753e-07
-5.097440891e-08
1.673620844e-07
-5.275872149e-08
1.761355462e-07
-5.495582577e-08
1.851525516e-07
-5.767101878e-08
1.943684669e-07
-6.117473226e-08
2.039192284e-07
-6.438846863e-08
2.122236297e-07
-7.654537777e-08
2.239411894e-07
-3.836995678e-08
2.187796716e-07
-2.559342716e-07
1.685354773e-06
2.084184123e-10
-1.428872124e-09
8.330557673e-10
-4.291890673e-09
1.872300904e-09
-7.145387645e-09
3.323492334e-09
-9.979543723e-09
5.182812736e-09
-1.278589562e-08
7.445252202e-09
-1.5556025e-08
1.010457452e-08
-1.82814731e-08
1.315328444e-08
-2.095369756e-08
1.658259382e-08
-2.356405509e-08
2.038239123e-08
-2.610385003e-08
2.454122484e-08
-2.856443285e-08
2.904630261e-08
-3.093733425e-08
3.388351653e-08
-3.321444061e-08
3.903749746e-08
-3.538821058e-08
4.449170691e-08
-3.74519324e-08
5.0228572e-08
-3.940002042e-08
5.622966909e-08
-4.122834943e-08
6.247596079e-08
-4.29346244e-08
6.894809064e-08
-4.451878303e-08
7.562673789e-08
-4.598342783e-08
8.249303331e-08
-4.733428587e-08
8.952903543e-08
-4.858069466e-08
9.671826317e-08
-4.973611496e-08
1.040462758e-07
-5.081867077e-08
1.115012667e-07
-5.185171478e-08
1.190747325e-07
-5.286461498e-08
1.267620958e-07
-5.389322067e-08
1.345631696e-07
-5.498077021e-08
1.424825156e-07
-5.617890604e-08
1.505294493e-07
-5.754878596e-08
1.587175309e-07
-5.916248346e-08
1.670634143e-07
-6.110459732e-08
1.75582032e-07
-6.347443583e-08
1.842856465e-07
-6.637462485e-08
1.931355664e-07
-7.002464256e-08
2.023578331e-07
-7.361072929e-08
2.102832062e-07
-8.447073703e-08
2.259215276e-07
-5.400827293e-08
2.102462654e-07
-2.403521309e-07
1.911772655e-06
2.096600446e-10
-1.638532184e-09
8.379942831e-10
-4.920224949e-09
1.88338021e-09
-8.190773625e-09
3.343172944e-09
-1.143933652e-08
5.213598161e-09
-1.46563209e-08
7.489703781e-09
-1.783213066e-08
1.016531088e-08
-2.095708021e-08
1.323296621e-08
-2.402135285e-08
1.668389581e-08
-2.701498458e-08
2.050795981e-08
-2.992791383e-08
2.469362074e-08
-3.275009348e-08
2.922792867e-08
-3.547164173e-08
3.409653009e-08
-3.808304142e-08
3.928370746e-08
-4.057538716e-08
4.477245603e-08
-4.294067996e-08
5.054460433e-08
-4.517216747e-08
5.658098413e-08
-4.726472771e-08
6.286165468e-08
-4.921529315e-08
6.936618525e-08
-5.102331148e-08
7.607399816e-08
-5.269123829e-08
8.296477244e-08
-5.422505733e-08
9.001890605e-08
-5.563482508e-08
9.721803088e-08
-5.693523622e-08
1.0454557e-07
-5.814620592e-08
1.119873128e-07
-5.929345317e-08
1.195319569e-07
-6.040925427e-08
1.271717965e-07
-6.153305499e-08
1.349030146e-07
-6.271198261e-08
1.427259509e-07
-6.400183627e-08
1.506450275e-07
-6.546785598e-08
1.586682236e-07
-6.718567259e-08
1.668057735e-07
-6.924213978e-08
1.750676716e-07
-7.173632634e-08
1.834646005e-07
-7.477154582e-08
1.919713474e-07
-7.853137945e-08
2.009045177e-07
-8.25438938e-08
2.084482853e-07
-9.201449169e-08
2.259896193e-07
-7.154960063e-08
2.023123396e-07
-2.167706944e-07
2.130488137e-06
2.110576073e-10
-1.849589804e-09
8.435631975e-10
-5.552730564e-09
1.895901407e-09
-9.243111869e-09
3.365462404e-09
-1.290889755e-08
5.248530368e-09
-1.653938889e-08
7.540226174e-09
-2.012382648e-08
1.023444399e-08
-2.365129799e-08
1.332378785e-08
-2.711069664e-08
1.679951105e-08
-3.049070763e-08
2.065145354e-08
-3.377985607e-08
2.486799322e-08
-3.696663281e-08
2.943601335e-08
-4.003966136e-08
3.434089345e-08
-4.298792087e-08
3.956653106e-08
-4.580102391e-08
4.509540101e-08
-4.846954885e-08
5.090865946e-08
-5.098542462e-08
5.698629832e-08
-5.334236501e-08
6.33073555e-08
-5.55363485e-08
6.985018462e-08
-5.756613844e-08
7.659278646e-08
-5.943383766e-08
8.351320214e-08
-6.114547018e-08
9.058996434e-08
-6.27115841e-08
9.780260032e-08
-6.414786864e-08
1.051321755e-07
-6.547577712e-08
1.12561863e-07
-6.672313637e-08
1.200774072e-07
-6.792479367e-08
1.276678299e-07
-6.912347248e-08
1.353257034e-07
-7.036985047e-08
1.430473569e-07
-7.172348373e-08
1.508328555e-07
-7.325334816e-08
1.586856112e-07
-7.503842148e-08
1.66611118e-07
-7.716763918e-08
1.746148186e-07
-7.974001936e-08
1.827047549e-07
-8.286147466e-08
1.908515824e-07
-8.667819678e-08
1.993915938e-07
-9.10838994e-08
2.064385797e-07
-9.906146553e-08
2.239366382e-07
-8.904765215e-08
1.952218741e-07
-1.881509164e-07
2.342259331e-06
2.126103154e-10
-2.062200127e-09
8.497574502e-10
-6.189877713e-09
1.909848338e-09
-1.030320277e-08
3.390326999e-09
-1.438937622e-08
5.287555553e-09
-1.843661743e-08
7.596748058e-09
-2.243301895e-08
1.031189308e-08
-2.636644294e-08
1.342567289e-08
-3.022447631e-08
1.692938675e-08
-3.399442128e-08
2.081286871e-08
-3.766333773e-08
2.506441925e-08
-4.121818292e-08
2.967075214e-08
-4.464599368e-08
3.461696466e-08
-4.793413267e-08
3.98865388e-08
-5.107059714e-08
4.546138064e-08
-5.404438957e-08
5.132190545e-08
-5.684594808e-08
5.744717502e-08
-5.946763298e-08
6.381509246e-08
-6.190426405e-08
7.040265884e-08
-6.415370265e-08
7.718629377e-08
-6.621747009e-08
8.414221983e-08
-6.81013934e-08
9.124690702e-08
-6.98162681e-08
9.847757011e-08
-7.137852817e-08
1.058127078e-07
-7.281091084e-08
1.132326715e-07
-7.414309575e-08
1.20720164e-07
-7.541228146e-08
1.282607624e-07
-7.666406579e-08
1.35843475e-07
-7.795255749e-08
1.43460825e-07
-7.934082784e-08
1.511089748e-07
-8.090149158e-08
1.58787342e-07
-8.271678206e-08
1.664976593e-07
-8.487794919e-08
1.742424444e-07
-8.748479682e-08
1.820260626e-07
-9.0645086e-08
1.898090086e-07
-9.446113252e-08
1.979152142e-07
-9.919009904e-08
2.042910669e-07
-1.054373071e-07
2.211746882e-07
-1.059312659e-07
1.889462674e-07
-1.560141253e-07
2.547846785e-06
2.143155688e-10
-2.2765157e-09
8.565657153e-10
-6.83212786e-09
1.925193673e-09
-1.137183072e-08
3.417717157e-09
-1.588189968e-08
5.330599382e-09
-2.034949962e-08
7.659172672e-09
-2.476159216e-08
1.03975473e-08
-2.910481745e-08
1.353851143e-08
-3.336544024e-08
1.707343531e-08
-3.752934489e-08
2.099216845e-08
-4.15820705e-08
2.528294826e-08
-4.550896224e-08
2.993232362e-08
-4.929536841e-08
3.492510142e-08
-5.292690967e-08
4.02443243e-08
-5.638981905e-08
4.587128756e-08
-5.967135165e-08
5.178560307e-08
-6.276026218e-08
5.796531733e-08
-6.564734559e-08
6.438708981e-08
-6.83260346e-08
7.10264361e-08
-7.079304672e-08
7.785803846e-08
-7.304906994e-08
8.485612376e-08
-7.509947584e-08
9.199490548e-08
-7.695504663e-08
9.924908251e-08
-7.863270165e-08
1.065943844e-07
-8.015620882e-08
1.140081507e-07
-8.155685778e-08
1.214699035e-07
-8.287402957e-08
1.289616859e-07
-8.415584311e-08
1.364689238e-07
-8.545978996e-08
1.439804995e-07
-8.685239777e-08
1.514889525e-07
-8.840993823e-08
1.589901157e-07
-9.021793881e-08
1.664825805e-07
-9.237040699e-08
1.739666634e-07
-9.496887195e-08
1.814453082e-07
-9.812372434e-08
1.888849238e-07
-1.019007382e-07
1.965509535e-07
-1.068561225e-07
2.023823274e-07
-1.112686708e-07
2.181583987e-07
-1.217073294e-07
1.83273128e-07
-1.212164173e-07
2.747820826e-06
2.161691953e-10
-2.492684894e-09
8.639709024e-10
-7.479929553e-09
1.941898792e-09
-1.244975858e-08
3.447565865e-09
-1.73875667e-08
5.377563364e-09
-2.227949703e-08
7.727372509e-09
-2.711140117e-08
1.049125887e-08
-3.186870362e-08
1.366215117e-08
-3.653633229e-08
1.723152333e-08
-4.109871671e-08
2.118926969e-08
-4.553981642e-08
2.55235872e-08
-4.98432792e-08
3.022087267e-08
-5.399265318e-08
3.526564252e-08
-5.797167866e-08
4.064048404e-08
-6.176465953e-08
4.632604692e-08
-6.535691328e-08
5.230108327e-08
-6.873529707e-08
5.854254465e-08
-7.188880526e-08
6.502574243e-08
-7.480923041e-08
7.172457696e-08
-7.7491879e-08
7.861183887e-08
-7.99363293e-08
8.565958311e-08
-8.214721721e-08
9.283957287e-08
-8.41350332e-08
1.001237867e-07
-8.591691195e-08
1.074849816e-07
-8.751739982e-08
1.148972934e-07
-8.896916538e-08
1.223368448e-07
-9.031357632e-08
1.297821975e-07
-9.160119078e-08
1.37215018e-07
-9.289260511e-08
1.446206774e-07
-9.425805153e-08
1.519881815e-07
-9.577743609e-08
1.593100981e-07
-9.753984902e-08
1.665824727e-07
-9.9642775e-08
1.738041593e-07
-1.021905507e-07
1.809780329e-07
-1.052975918e-07
1.880795273e-07
-1.090022232e-07
1.952885641e-07
-1.140651527e-07
2.007230795e-07
-1.167031767e-07
2.158265989e-07
-1.368108408e-07
1.781247477e-07
-8.359492199e-08
2.942686235e-06
2.181654949e-10
-2.710850384e-09
8.719501182e-10
-8.133714148e-09
1.959913037e-09
-1.353772144e-08
3.479786596e-09
-1.890744017e-08
5.42832111e-09
-2.422803141e-08
7.801183464e-09
-2.948426335e-08
1.059283491e-08
-3.466035483e-08
1.379638707e-08
-3.973988413e-08
1.740345906e-08
-4.470578829e-08
2.140402841e-08
-4.954038526e-08
2.578628355e-08
-5.42255337e-08
3.053649136e-08
-5.874286021e-08
3.563888691e-08
-6.307407328e-08
4.107559484e-08
-6.720136634e-08
4.682659218e-08
-7.11079093e-08
5.286972202e-08
-7.477842539e-08
5.918076685e-08
-7.819984832e-08
6.573358953e-08
-8.136205106e-08
7.250034777e-08
-8.425863495e-08
7.945178681e-08
-8.688776577e-08
8.655761167e-08
-8.92530392e-08
9.378693733e-08
-9.136435567e-08
1.011088125e-07
-9.323878362e-08
1.084928079e-07
-9.49013914e-08
1.159096408e-07
-9.638599406e-08
1.233318311e-07
-9.773576204e-08
1.307343762e-07
-9.900373106e-08
1.380951179e-07
-1.002533415e-07
1.453958237e-07
-1.015587518e-07
1.526220045e-07
-1.030036109e-07
1.597632685e-07
-1.046811067e-07
1.668134606e-07
-1.066929607e-07
1.737701772e-07
-1.091472595e-07
1.806364253e-07
-1.121638339e-07
1.873962461e-07
-1.15762035e-07
1.941874125e-07
-1.208563124e-07
1.99310913e-07
-1.218266685e-07
2.137356514e-07
-1.512353237e-07
1.733795962e-07
-4.331129008e-08
3.132833869e-06
2.202971685e-10
-2.931147541e-09
8.804742473e-10
-8.793891181e-09
1.979172484e-09
-1.46364196e-08
3.514270676e-09
-2.044253824e-08
5.482714109e-09
-2.619647467e-08
7.880398248e-09
-3.188194725e-08
1.070202826e-08
-3.748198453e-08
1.394094991e-08
-4.29788054e-08
1.758897838e-08
-4.835381628e-08
2.163622306e-08
-5.358762935e-08
2.60709062e-08
-5.866021613e-08
3.087919756e-08
-6.355115071e-08
3.60450702e-08
-6.82399449e-08
4.155018843e-08
-7.270648338e-08
4.737383851e-08
-7.693155799e-08
5.349291261e-08
-8.08974979e-08
5.988195604e-08
-8.458888992e-08
6.651328662e-08
-8.799337958e-08
7.33571937e-08
-9.11025397e-08
8.038222218e-08
-9.391279165e-08
8.755554488e-08
-9.642635901e-08
9.484342324e-08
-9.865223084e-08
1.022117548e-07
-1.006071117e-07
1.096266916e-07
-1.023163244e-07
1.170552906e-07
-1.038145889e-07
1.244662624e-07
-1.051467293e-07
1.318307624e-07
-1.063682263e-07
1.391229275e-07
-1.075455014e-07
1.463205452e-07
-1.087563641e-07
1.534058618e-07
-1.100889217e-07
1.603656804e-07
-1.11640919e-07
1.671916856e-07
-1.1351896e-07
1.738804105e-07
-1.158359767e-07
1.804341943e-07
-1.187176118e-07
1.868341907e-07
-1.221620229e-07
1.932662319e-07
-1.272883468e-07
1.981697024e-07
-1.267301306e-07
2.122117239e-07
-1.652764758e-07
1.688881057e-07
-5.126894285e-11
3.31850921e-06
2.225551664e-10
-3.153702691e-09
8.895072941e-10
-9.460843246e-09
1.99959827e-09
-1.574651046e-08
3.550884106e-09
-2.199382391e-08
5.540546355e-09
-2.81861367e-08
7.964758911e-09
-3.430615952e-08
1.081852746e-08
-4.033575272e-08
1.409549323e-08
-4.625577071e-08
1.778772894e-08
-5.204605143e-08
2.18855358e-08
-5.768543554e-08
2.637722408e-08
-6.315190361e-08
3.124891091e-08
-6.842283659e-08
3.648433829e-08
-7.347537118e-08
4.206472339e-08
-7.828686721e-08
4.796865324e-08
-8.283548638e-08
5.417203549e-08
-8.710087847e-08
6.064811633e-08
-9.106496888e-08
6.736757615e-08
-9.471283727e-08
7.429871133e-08
-9.803367251e-08
8.140770932e-08
-1.01021787e-07
8.865902193e-08
-1.036776687e-07
9.601584097e-08
-1.060090467e-07
1.034406721e-07
-1.080319394e-07
1.108959819e-07
-1.097716304e-07
1.18344913e-07
-1.112635159e-07
1.257521171e-07
-1.12553929e-07
1.330846149e-07
-1.137007194e-07
1.403126199e-07
-1.147735013e-07
1.47409968e-07
-1.158537068e-07
1.543555373e-07
-1.170344855e-07
1.611334306e-07
-1.18418806e-07
1.677332515e-07
-1.201187752e-07
1.741502863e-07
-1.222530042e-07
1.803881435e-07
-1.249554631e-07
1.864420791e-07
-1.282159506e-07
1.924905951e-07
-1.33336856e-07
1.971448137e-07
-1.313843414e-07
2.108183579e-07
-1.789483027e-07
1.646890207e-07
4.602382377e-08
3.499998589e-06
2.249284782e-10
-3.378631147e-09
8.990055357e-10
-1.013492022e-08
2.021094588e-09
-1.686859938e-08
3.589463867e-09
-2.356219299e-08
5.601578531e-09
-3.019825109e-08
8.053948562e-09
-3.67585292e-08
1.094194555e-08
-4.322374927e-08
1.425957877e-08
-4.957340341e-08
1.799925238e-08
-5.57857244e-08
2.21515316e-08
-6.1837714e-08
2.670488196e-08
-6.770525309e-08
3.164542583e-08
-7.336337945e-08
3.695671797e-08
-7.878666213e-08
4.26195537e-08
-8.394970158e-08
4.861182322e-08
-8.882775436e-08
5.490842502e-08
-9.339747854e-08
6.148125117e-08
-9.763779309e-08
6.829925609e-08
-1.0153084e-07
7.532861965e-08
-1.050630337e-07
8.253301238e-08
-1.082261771e-07
8.987396985e-08
-1.110186233e-07
9.73113817e-08
-1.134464554e-07
1.048040931e-07
-1.155246474e-07
1.123105823e-07
-1.172781159e-07
1.197898023e-07
-1.187427318e-07
1.272020482e-07
-1.199661707e-07
1.345099029e-07
-1.210085695e-07
1.41679244e-07
-1.219428375e-07
1.486801045e-07
-1.228545622e-07
1.554875304e-07
-1.238419059e-07
1.620829496e-07
-1.250142192e-07
1.68454155e-07
-1.264899751e-07
1.745951286e-07
-1.283939707e-07
1.805094055e-07
-1.308697341e-07
1.862037693e-07
-1.33910307e-07
1.918359766e-07
-1.389690566e-07
1.96125982e-07
-1.356743392e-07
2.089850403e-07
-1.918047313e-07
1.6085111e-07
9.411276203e-08
3.677657776e-06
2.274038883e-10
-3.606035007e-09
9.089164909e-10
-1.081643273e-08
2.043546364e-09
-1.800322908e-08
3.629813662e-09
-2.514846005e-08
5.665521334e-09
-3.223395844e-08
8.147582398e-09
-3.924058986e-08
1.107180779e-08
-4.614797416e-08
1.443265963e-08
-5.293425465e-08
1.822296471e-08
-5.957602877e-08
2.243363478e-08
-6.604838323e-08
2.705337353e-08
-7.232499087e-08
3.206838136e-08
-7.837838616e-08
3.746208393e-08
-8.418036343e-08
4.321489361e-08
-8.970250983e-08
4.930401825e-08
-9.491687739e-08
5.570333267e-08
-9.979679115e-08
6.238332703e-08
-1.043177854e-07
6.931114579e-08
-1.084586566e-07
7.645072907e-08
-1.122026145e-07
8.376306717e-08
-1.155385125e-07
9.120657653e-08
-1.184621297e-07
9.873759915e-08
-1.209774748e-07
1.063110151e-07
-1.230980599e-07
1.138810046e-07
-1.248481017e-07
1.214019694e-07
-1.262636927e-07
1.288295164e-07
-1.273937134e-07
1.36121449e-07
-1.283004977e-07
1.432389468e-07
-1.290603305e-07
1.501477987e-07
-1.297634091e-07
1.568192641e-07
-1.305133661e-07
1.632315785e-07
-1.314265276e-07
1.693708041e-07
-1.326291955e-07
1.752304016e-07
-1.342535615e-07
1.808159875e-07
-1.364553142e-07
1.861256537e-07
-1.392199663e-07
1.913209594e-07
-1.441643557e-07
1.952289258e-07
-1.395822985e-07
2.070033625e-07
-2.035756598e-07
1.572707978e-07
1.438092652e-07
3.851740101e-06
2.299656834e-10
-3.836000656e-09
9.191777565e-10
-1.150564469e-08
2.06681657e-09
-1.91508677e-08
3.671699193e-09
-2.675334239e-08
5.73202788e-09
-3.429428675e-08
8.245194631e-09
-4.175375614e-08
1.120753722e-08
-4.911031618e-08
1.461406593e-08
-5.634078268e-08
1.845813452e-08
-6.342009656e-08
2.2731103e-08
-7.032135079e-08
2.742201157e-08
-7.701589838e-08
3.251722757e-08
-8.347360096e-08
3.800012213e-08
-8.966325664e-08
4.385077863e-08
-9.555316481e-08
5.004575059e-08
-1.011118477e-07
5.65578859e-08
-1.063089246e-07
6.335623353e-08
-1.11116131e-07
7.040604837e-08
-1.155084691e-07
7.766890805e-08
-1.194654717e-07
8.510295414e-08
-1.229725559e-07
9.266326669e-08
-1.260224393e-07
1.003023737e-07
-1.286165787e-07
1.079708908e-07
-1.307665736e-07
1.15618361e-07
-1.324955682e-07
1.231942119e-07
-1.338395398e-07
1.306488934e-07
-1.348483907e-07
1.379350781e-07
-1.35586678e-07
1.450088521e-07
-1.361340999e-07
1.518312015e-07
-1.365857535e-07
1.583694226e-07
-1.370515823e-07
1.645981733e-07
-1.376552726e-07
1.705014208e-07
-1.385324379e-07
1.760723794e-07
-1.398245137e-07
1.813219003e-07
-1.417048294e-07
1.862278281e-07
-1.441258875e-07
1.909750646e-07
-1.489115859e-07
1.94493587e-07
-1.431008142e-07
2.051582746e-07
-2.142360515e-07
1.539154486e-07
1.950248866e-07
4.022467891e-06
2.325953063e-10
-4.068595922e-09
9.297156784e-10
-1.220276492e-08
2.090743283e-09
-2.031189507e-08
3.714842878e-09
-2.837744166e-08
5.800685758e-09
-3.638012921e-08
8.346229301e-09
-4.429929915e-08
1.13484406e-08
-5.211252683e-08
1.480298308e-08
-5.97953244e-08
1.870385701e-08
-6.732096961e-08
2.304299835e-08
-7.466049112e-08
2.780989448e-08
-8.178279336e-08
3.299118837e-08
-8.865489357e-08
3.857028904e-08
-9.524235587e-08
4.452702207e-08
-1.015098962e-07
5.083733001e-08
-1.074221538e-07
5.74730431e-08
-1.129446357e-07
6.440173915e-08
-1.180448249e-07
7.15867094e-08
-1.226934371e-07
7.898704659e-08
-1.268658064e-07
8.655786934e-08
-1.305433759e-07
9.425069145e-08
-1.337152585e-07
1.020139386e-07
-1.363798227e-07
1.09793648e-07
-1.385462797e-07
1.17534341e-07
-1.402362576e-07
1.251800497e-07
-1.414852447e-07
1.326755332e-07
-1.423438702e-07
1.399677499e-07
-1.428788904e-07
1.470073036e-07
-1.431736491e-07
1.537498923e-07
-1.433283374e-07
1.601581589e-07
-1.434598442e-07
1.662032868e-07
-1.43700395e-07
1.718665265e-07
-1.441956726e-07
1.771403838e-07
-1.450983651e-07
1.820368253e-07
-1.466012654e-07
1.865311223e-07
-1.486201784e-07
1.908077779e-07
-1.531882355e-07
1.938897365e-07
-1.461827663e-07
2.035245259e-07
-2.238658455e-07
1.507492317e-07
2.477818074e-07
4.190028619e-06
2.352710058e-10
-4.303866881e-09
9.40443894e-10
-1.290793766e-08
2.115136371e-09
-2.148658729e-08
3.758918029e-09
-3.002122295e-08
5.871007908e-09
-3.849221861e-08
8.450026929e-09
-4.687831758e-08
1.149368714e-08
-5.515618634e-08
1.499842993e-08
-6.330006636e-08
1.895903253e-08
-7.128157125e-08
2.336815485e-08
-7.906961234e-08
2.821586911e-08
-8.663050638e-08
3.348921944e-08
-9.392824253e-08
3.917176598e-08
-1.009249009e-07
4.524316657e-08
-1.075812951e-07
5.167881336e-08
-1.138577988e-07
5.844954273e-08
-1.197153631e-07
6.552144204e-08
-1.251167221e-07
7.285577103e-08
-1.300277637e-07
8.040901587e-08
-1.344190487e-07
8.813309237e-08
-1.382674497e-07
9.597570742e-08
-1.415578707e-07
1.038808931e-07
-1.442850053e-07
1.117897419e-07
-1.464551251e-07
1.196413223e-07
-1.480878345e-07
1.273737969e-07
-1.492177155e-07
1.349257368e-07
-1.498958062e-07
1.422376909e-07
-1.501908404e-07
1.492540773e-07
-1.501900312e-07
1.55924883e-07
-1.499991384e-07
1.622075005e-07
-1.497424572e-07
1.680690217e-07
-1.49561911e-07
1.734881005e-07
-1.496147466e-07
1.784561351e-07
-1.50066394e-07
1.829842717e-07
-1.511293967e-07
1.870577812e-07
-1.526936822e-07
1.908460777e-07
-1.569765261e-07
1.934846859e-07
-1.488213685e-07
2.021123523e-07
-2.324879015e-07
1.477804435e-07
3.021044137e-07
4.354618955e-06
2.379674309e-10
-4.541834258e-09
9.512617239e-10
-1.362123178e-08
2.139773907e-09
-2.267509918e-08
3.803542467e-09
-3.16849911e-08
5.942422651e-09
-4.063109826e-08
8.555809455e-09
-4.949170373e-08
1.164228947e-08
-5.824266558e-08
1.519923365e-08
-6.685700963e-08
1.922233948e-08
-7.530467604e-08
2.370514504e-08
-8.355241672e-08
2.863848875e-08
-9.156384878e-08
3.400996206e-08
-9.929971436e-08
3.980340795e-08
-1.067183452e-07
4.599842961e-08
-1.13776315e-07
5.256994839e-08
-1.204293156e-07
5.94878467e-08
-1.266332593e-07
6.671671467e-08
-1.323455878e-07
7.421572004e-08
-1.375267667e-07
8.193862229e-08
-1.421419483e-07
8.983395052e-08
-1.461627752e-07
9.784535657e-08
-1.495692738e-07
1.059121652e-07
-1.523518108e-07
1.1397013e-07
-1.545130866e-07
1.219523996e-07
-1.560701006e-07
1.297907189e-07
-1.570560312e-07
1.374168754e-07
-1.575219588e-07
1.447643915e-07
-1.575383525e-07
1.517705773e-07
-1.57196213e-07
1.583789353e-07
-1.566074918e-07
1.645411118e-07
-1.559046294e-07
1.702193823e-07
-1.552401765e-07
1.753893501e-07
-1.547847099e-07
1.800414498e-07
-1.547184884e-07
1.841861302e-07
-1.55274072e-07
1.878236431e-07
-1.563311897e-07
1.911001669e-07
-1.602530444e-07
1.932839001e-07
-1.51005096e-07
2.008651472e-07
-2.400630019e-07
1.449878078e-07
3.579817928e-07
4.516415073e-06
2.406551761e-10
-4.782489375e-09
9.620524359e-10
-1.434262885e-08
2.164398279e-09
-2.38774447e-08
3.848271588e-09
-3.336886396e-08
6.014262866e-09
-4.279708896e-08
8.662665407e-09
-5.214010556e-08
1.179308678e-08
-6.13730861e-08
1.540399221e-08
-7.046791408e-08
1.949218834e-08
-7.939287105e-08
2.405225843e-08
-8.811248555e-08
2.907597582e-08
-9.658756476e-08
3.455168873e-08
-1.047754257e-07
4.046368776e-08
-1.126303425e-07
4.679164276e-08
-1.201042682e-07
5.35101107e-08
-1.271477816e-07
6.058807723e-08
-1.337112237e-07
6.798864209e-08
-1.397461504e-07
7.566883011e-08
-1.452069522e-07
8.357955643e-08
-1.50052672e-07
9.16657768e-08
-1.542489928e-07
9.986683187e-08
-1.577703259e-07
1.08117002e-07
-1.606019779e-07
1.163462817e-07
-1.627423631e-07
1.244813934e-07
-1.642052089e-07
1.324470662e-07
-1.650217005e-07
1.401676037e-07
-1.652424927e-07
1.475687574e-07
-1.649395023e-07
1.545799245e-07
-1.642073761e-07
1.611368812e-07
-1.631644442e-07
1.671847729e-07
-1.619525171e-07
1.726803893e-07
-1.607357881e-07
1.775955369e-07
-1.59699853e-07
1.819193475e-07
-1.590422941e-07
1.856624494e-07
-1.590171691e-07
1.888441826e-07
-1.595129177e-07
1.915916443e-07
-1.63000501e-07
1.933162463e-07
-1.527296926e-07
1.997326228e-07
-2.464727745e-07
1.423350089e-07
4.153888259e-07
4.675557401e-06
2.433003225e-10
-5.025789632e-09
9.726813069e-10
-1.507200962e-08
2.188711825e-09
-2.509347487e-08
3.892590714e-09
-3.507274236e-08
6.08575409e-09
-4.499025171e-08
8.769532757e-09
-5.482388346e-08
1.194471985e-08
-6.454827228e-08
1.56110609e-08
-7.413425406e-08
1.976667452e-08
-8.354848347e-08
2.440741471e-08
-9.275322439e-08
2.952619134e-08
-1.017063399e-07
3.511227633e-08
-1.103615091e-07
4.115062894e-08
-1.186686933e-07
4.762118491e-08
-1.265748222e-07
5.449823305e-08
-1.340248277e-07
6.174994422e-08
-1.409629327e-07
6.933795179e-08
-1.473341556e-07
7.721709567e-08
-1.530860936e-07
8.533533411e-08
-1.581709079e-07