/*--------------------------------*- C++ -*----------------------------------*\
| =========                 |                                                 |
| \\      /  F ield         | OpenFOAM: The Open Source CFD Toolbox           |
|  \\    /   O peration     | Version:  v1912                                 |
|   \\  /    A nd           | Website:  www.openfoam.com                      |
|    \\/     M anipulation  |                                                 |
\*---------------------------------------------------------------------------*/
FoamFile
{
    version     2.0;
    format      ascii;
    class       surfaceScalarField;
    location    "0.7";
    object      phi.gas;
}
// * * * * * * * * * * * * * * * * * * * * * * * * * * * * * * * * * * * * * //

dimensions      [0 3 -1 0 0 0 0];
oriented        oriented;


internalField   nonuniform List<scalar> 
9440
(
1.926280667e-10
7.36716384e-09
7.780337727e-10
2.209407055e-08
1.754340455e-09
3.682287987e-08
3.118217418e-09
5.155497487e-08
4.86538017e-09
6.629135253e-08
6.990320302e-09
8.103321693e-08
9.486327407e-09
9.578176649e-08
1.234546095e-08
1.10538225e-07
1.555854889e-08
1.253038178e-07
1.911519571e-08
1.400797635e-07
2.300380093e-08
1.548672619e-07
2.721160071e-08
1.69667472e-07
3.172473576e-08
1.84481485e-07
3.652835037e-08
1.993102939e-07
4.160672776e-08
2.14154757e-07
4.694346709e-08
2.290155563e-07
5.252170703e-08
2.438931514e-07
5.832440135e-08
2.587877274e-07
6.433465117e-08
2.73699138e-07
7.053609923e-08
2.886268444e-07
7.691339194e-08
3.035698466e-07
8.345271617e-08
3.185266097e-07
9.014242025e-08
3.334949791e-07
9.697373468e-08
3.48472081e-07
1.039416207e-07
3.634541951e-07
1.110457426e-07
3.784366308e-07
1.182916653e-07
3.934135013e-07
1.256923595e-07
4.083774171e-07
1.332701732e-07
4.2331901e-07
1.410595418e-07
4.382262036e-07
1.491112706e-07
4.530827085e-07
1.574989471e-07
4.67865764e-07
1.663329688e-07
4.82538681e-07
1.757647873e-07
4.970598602e-07
1.861763702e-07
5.112028599e-07
1.972353595e-07
5.256560694e-07
2.138983688e-07
5.352805216e-07
2.094198207e-07
5.709856825e-07
3.554794946e-07
4.134328433e-07
9.446577043e-07
2.045216026e-10
6.647268002e-09
8.185593878e-10
1.993405081e-08
1.841525748e-09
3.322330445e-08
3.270498309e-09
4.651872042e-08
5.101347426e-09
5.982254051e-08
7.328755736e-09
7.313714021e-08
9.946222316e-09
8.646490041e-08
1.294602073e-08
9.98082661e-08
1.631924722e-08
1.131696362e-07
2.005579604e-08
1.26551429e-07
2.414437728e-08
1.399560259e-07
2.857255741e-08
1.533857269e-07
3.332682488e-08
1.668426992e-07
3.839268708e-08
1.803289153e-07
4.375480423e-08
1.938460793e-07
4.939716574e-08
2.073955439e-07
5.53033145e-08
2.209782152e-07
6.145662422e-08
2.345944483e-07
6.784063517e-08
2.482439323e-07
7.443945357e-08
2.619255648e-07
8.12382203e-08
2.75637315e-07
8.822365638e-08
2.893760723e-07
9.5384694e-08
3.031374763e-07
1.027132086e-07
3.169157166e-07
1.102048744e-07
3.307032821e-07
1.178601449e-07
3.444907115e-07
1.256854562e-07
3.582661455e-07
1.336947098e-07
3.720147408e-07
1.419110976e-07
3.857178399e-07
1.503693235e-07
3.993518694e-07
1.591198716e-07
4.128848164e-07
1.682346743e-07
4.262724848e-07
1.778155652e-07
4.394483035e-07
1.880007236e-07
4.523341982e-07
1.99037207e-07
4.645972838e-07
2.108514493e-07
4.772321094e-07
2.282229599e-07
4.803149835e-07
2.313295132e-07
5.287197136e-07
2.814740795e-07
3.102989463e-07
1.216799922e-06
2.053202763e-10
6.472615415e-09
8.212037959e-10
1.941038629e-08
1.846546587e-09
3.23516821e-08
3.278660577e-09
4.530179436e-08
5.113529694e-09
5.826432546e-08
7.345903593e-09
7.124286773e-08
9.969316933e-09
8.424101605e-08
1.29761194e-08
9.72623978e-08
1.635742438e-08
1.10310643e-07
2.010313437e-08
1.233893785e-07
2.420195568e-08
1.365021788e-07
2.864143388e-08
1.496525022e-07
3.340801563e-08
1.628436125e-07
3.84871421e-08
1.760784857e-07
4.386337956e-08
1.893596996e-07
4.952059224e-08
2.026893077e-07
5.544216333e-08
2.160686972e-07
6.161126893e-08
2.294984307e-07
6.801121026e-08
2.429780735e-07
7.462580882e-08
2.56506005e-07
8.143987007e-08
2.700792135e-07
8.843972111e-08
2.836930706e-07
9.561382984e-08
2.973410802e-07
1.029535165e-07
3.110145855e-07
1.104537745e-07
3.247024093e-07
1.181142102e-07
3.38390486e-07
1.259401383e-07
3.520612574e-07
1.33943898e-07
3.65692867e-07
1.421464582e-07
3.792580365e-07
1.505792131e-07
3.927227605e-07
1.59286558e-07
4.060420908e-07
1.683297027e-07
4.191550485e-07
1.777904819e-07
4.31974428e-07
1.877774563e-07
4.443954135e-07
1.984532841e-07
4.560320483e-07
2.097696366e-07
4.680832239e-07
2.238087705e-07
4.685224029e-07
2.297725828e-07
5.237493721e-07
2.392765836e-07
2.861108069e-07
1.49028722e-06
2.059849147e-10
6.264930002e-09
8.237933506e-10
1.878776292e-08
1.851988171e-09
3.131547497e-08
3.28790151e-09
4.385464217e-08
5.127584561e-09
5.641017681e-08
7.365835561e-09
6.898690607e-08
9.996229347e-09
8.158964683e-08
1.301112315e-08
9.422324043e-08
1.64016339e-08
1.068925524e-07
2.015764309e-08
1.196024425e-07
2.426780922e-08
1.323577052e-07
2.871959855e-08
1.451629878e-07
3.34993412e-08
1.580226881e-07
3.859231868e-08
1.709408283e-07
4.398288839e-08
1.839209087e-07
4.965465071e-08
1.96965739e-07
5.559066416e-08
2.100772475e-07
6.177371349e-08
2.23256271e-07
6.818663565e-08
2.365023236e-07
7.481270826e-08
2.49813346e-07
8.163610463e-08
2.631854336e-07
8.864241945e-08
2.766125405e-07
9.581927013e-08
2.900861526e-07
1.031569765e-07
3.035949166e-07
1.106493361e-07
3.171241839e-07
1.182945068e-07
3.306555377e-07
1.260959509e-07
3.441661242e-07
1.340635367e-07
3.576276913e-07
1.422147743e-07
3.710053307e-07
1.505763828e-07
3.8425582e-07
1.591847528e-07
3.973245799e-07
1.680875606e-07
4.101393924e-07
1.773440188e-07
4.226015045e-07
1.870223996e-07
4.345970612e-07
1.971849022e-07
4.457462901e-07
2.077929214e-07
4.573484238e-07
2.188710901e-07
4.573163498e-07
2.265428647e-07
5.140623488e-07
2.203037308e-07
2.729916571e-07
1.745216465e-06
2.067720254e-10
6.058370131e-09
8.26920953e-10
1.816860805e-08
1.858823425e-09
3.028523127e-08
3.299792902e-09
4.241597103e-08
5.145921485e-09
5.456698641e-08
7.392052486e-09
6.67443348e-08
1.003179873e-08
7.89540621e-08
1.305753456e-08
9.120224456e-08
1.646037691e-08
1.034950003e-07
2.023017977e-08
1.158384492e-07
2.435553922e-08
1.282386404e-07
2.882381693e-08
1.40701453e-07
3.362118838e-08
1.53232468e-07
3.873272221e-08
1.658368125e-07
4.414249657e-08
1.785189754e-07
4.983375819e-08
1.912825965e-07
5.578912956e-08
2.04130228e-07
6.199086922e-08
2.170630705e-07
6.842118965e-08
2.300806854e-07
7.506263668e-08
2.431806817e-07
8.189853327e-08
2.563583804e-07
8.891349065e-08
2.696064509e-07
9.609398783e-08
2.829145159e-07
1.034290172e-07
2.962687145e-07
1.109107958e-07
3.096511797e-07
1.185355916e-07
3.230394527e-07
1.263045083e-07
3.364058522e-07
1.34224361e-07
3.497164251e-07
1.423085374e-07
3.629297014e-07
1.505778994e-07
3.759949971e-07
1.59060922e-07
3.888501017e-07
1.677920379e-07
4.014169112e-07
1.768091851e-07
4.135931911e-07
1.861476271e-07
4.252677984e-07
1.957954011e-07
4.361076581e-07
2.057841441e-07
4.473715523e-07
2.149949071e-07
4.481121452e-07
2.200724917e-07
5.038341729e-07
2.046912323e-07
2.709504179e-07
1.989243877e-06
2.076968525e-10
5.850751443e-09
8.306360015e-10
1.754633358e-08
1.867080745e-09
2.924988599e-08
3.314330606e-09
4.097023447e-08
5.168508161e-09
5.271473677e-08
7.42450054e-09
6.449066669e-08
1.007596051e-08
7.630530292e-08
1.311528576e-08
8.816597327e-08
1.653359395e-08
1.000800708e-07
2.032070726e-08
1.120550081e-07
2.446514737e-08
1.240981316e-07
2.895414906e-08
1.362166042e-07
3.377369818e-08
1.484172531e-07
3.89086005e-08
1.60706383e-07
4.434258761e-08
1.730895552e-07
5.005846595e-08
1.855713333e-07
5.603831393e-08
1.981549965e-07
6.226373268e-08
2.108422231e-07
6.871615396e-08
2.236327441e-07
7.537720894e-08
2.365239711e-07
8.222915974e-08
2.495105966e-07
8.925539413e-08
2.625841677e-07
9.644098232e-08
2.757326293e-07
1.037732897e-07
2.889398308e-07
1.112426194e-07
3.02184973e-07
1.18842982e-07
3.154418985e-07
1.2657275e-07
3.286785731e-07
1.344353259e-07
3.418560228e-07
1.424396918e-07
3.549272095e-07
1.506007258e-07
3.678355641e-07
1.589391221e-07
3.805130682e-07
1.67479182e-07
3.928780054e-07
1.762442852e-07
4.048291095e-07
1.852524085e-07
4.16260785e-07
1.944582065e-07
4.269023227e-07
2.040020599e-07
4.378321634e-07
2.122830354e-07
4.398208697e-07
2.224463527e-07
4.92134662e-07
1.974762204e-07
2.75716092e-07
2.224068826e-06
2.087716823e-10
5.642046089e-09
8.349708767e-10
1.692083768e-08
1.87678824e-09
2.820922212e-08
3.331525519e-09
3.951708414e-08
5.195338074e-09
5.085294591e-08
7.463160728e-09
6.222528221e-08
1.012869221e-08
7.364260622e-08
1.318436076e-08
8.511351267e-08
1.66212889e-08
9.664669515e-08
2.042926579e-08
1.082508968e-07
2.459673001e-08
1.199348111e-07
2.911077061e-08
1.317069474e-07
3.395715226e-08
1.435754544e-07
3.912037133e-08
1.555479024e-07
4.458374911e-08
1.676310258e-07
5.032956841e-08
1.79830425e-07
5.633925909e-08
1.921502314e-07
6.259363716e-08
2.045927367e-07
6.907320182e-08
2.171579894e-07
7.575849272e-08
2.29843362e-07
8.263050845e-08
2.426430903e-07
8.967118555e-08
2.555477869e-07
9.686393409e-08
2.685439273e-07
1.041942206e-07
2.816133098e-07
1.116501649e-07
2.947324886e-07
1.192232103e-07
3.078719877e-07
1.26908754e-07
3.209958316e-07
1.347066104e-07
3.340606372e-07
1.426213724e-07
3.47014598e-07
1.50662419e-07
3.597963709e-07
1.588434056e-07
3.723336728e-07
1.671811076e-07
3.84541669e-07
1.756905765e-07
3.963207963e-07
1.843844223e-07
4.075681448e-07
1.932231327e-07
4.180638491e-07
2.024401043e-07
4.28621516e-07
2.103388381e-07
4.319039643e-07
2.196873214e-07
4.764827827e-07
1.838572731e-07
2.883823415e-07
2.450775679e-06
2.10001811e-10
5.432091458e-09
8.399392902e-10
1.629162196e-08
1.887955671e-09
2.716237951e-08
3.351373267e-09
3.805527996e-08
5.226390528e-09
4.897998351e-08
7.507999567e-09
5.99461512e-08
1.018995564e-08
7.096353137e-08
1.326472813e-08
8.204200119e-08
1.672345243e-08
9.319158272e-08
2.055588767e-08
1.044223924e-07
2.475038485e-08
1.157445285e-07
2.929387272e-08
1.271679191e-07
3.417186768e-08
1.387021221e-07
3.936851449e-08
1.503560769e-07
4.486666449e-08
1.621378089e-07
5.064799778e-08
1.740540878e-07
5.669319507e-08
1.861100433e-07
6.298216405e-08
1.983087397e-07
6.94943243e-08
2.106507139e-07
7.62089528e-08
2.231334821e-07
8.310559031e-08
2.357510184e-07
9.016450643e-08
2.484932097e-07
9.736721745e-08
2.613452889e-07
1.046970466e-07
2.742872524e-07
1.121397027e-07
2.872932757e-07
1.196838216e-07
3.003309589e-07
1.273216631e-07
3.133607168e-07
1.350494025e-07
3.263352584e-07
1.428674008e-07
3.391986019e-07
1.507801319e-07
3.518853024e-07
1.587956573e-07
3.64319501e-07
1.669243254e-07
3.764140904e-07
1.75176226e-07
3.880697173e-07
1.835623828e-07
3.991827743e-07
1.920566693e-07
4.095691745e-07
2.009843753e-07
4.197002901e-07
2.084931759e-07
4.243695618e-07
2.141516887e-07
4.589371098e-07
1.7024179e-07
3.110004526e-07
2.669643445e-06
2.113888608e-10
5.220730992e-09
8.455440556e-10
1.565821002e-08
1.900579098e-09
2.610854343e-08
3.373855417e-09
3.658365041e-08
5.261630045e-09
4.709430581e-08
7.558967424e-09
5.765134263e-08
1.025969502e-08
6.826574442e-08
1.335633852e-08
7.89486867e-08
1.684005909e-08
8.97115504e-08
2.070059385e-08
1.00565873e-07
2.492620694e-08
1.115232219e-07
2.95036576e-08
1.225950267e-07
3.441819207e-08
1.337923549e-07
3.965356645e-08
1.451256331e-07
4.519210746e-08
1.566043135e-07
5.101481808e-08
1.682364875e-07
5.710153392e-08
1.800284507e-07
6.343113564e-08
1.919842215e-07
6.998182096e-08
2.041050198e-07
7.673143882e-08
2.163887116e-07
8.365788509e-08
2.288292258e-07
9.073955682e-08
2.414159509e-07
9.795585805e-08
2.541331167e-07
1.052877464e-07
2.669591709e-07
1.127183061e-07
2.798661688e-07
1.202332123e-07
2.928191251e-07
1.278214408e-07
3.057751624e-07
1.354755477e-07
3.186834224e-07
1.431918727e-07
3.31484148e-07
1.50970522e-07
3.441081401e-07
1.58814978e-07
3.564761745e-07
1.66730835e-07
3.684990461e-07
1.747236194e-07
3.80077442e-07
1.828016458e-07
3.911051316e-07
1.909344257e-07
4.014354209e-07
1.994674015e-07
4.111739677e-07
2.064707562e-07
4.173361334e-07
2.092517433e-07
4.414502365e-07
1.601767546e-07
3.396094541e-07
2.881491704e-06
2.129320289e-10
5.007808417e-09
8.51780234e-10
1.502012829e-08
1.914642645e-09
2.504690782e-08
3.39893872e-09
3.510103815e-08
5.301003518e-09
4.519438483e-08
7.615993978e-09
5.53389377e-08
1.0337831e-08
6.55469145e-08
1.345911735e-08
7.583080563e-08
1.697105856e-08
8.620338316e-08
2.086338382e-08
9.667765787e-08
2.512427731e-08
1.072667383e-07
2.974032576e-08
1.179836478e-07
3.469648953e-08
1.288410765e-07
3.997610498e-08
1.39851072e-07
4.556092528e-08
1.510246666e-07
5.143120717e-08
1.623714459e-07
5.75658502e-08
1.738990608e-07
6.394259374e-08
1.856126889e-07
7.053827604e-08
1.97514451e-07
7.732915741e-08
2.096027915e-07
8.429130739e-08
2.218718316e-07
9.140105217e-08
2.343107058e-07
9.863547483e-08
2.469028907e-07
1.059729574e-07
2.596255396e-07
1.133937531e-07
2.724488427e-07
1.208804884e-07
2.853354501e-07
1.284186817e-07
2.982395918e-07
1.359973155e-07
3.111069668e-07
1.436089136e-07
3.238742838e-07
1.512496683e-07
3.364686869e-07
1.589190576e-07
3.488076791e-07
1.666189034e-07
3.607997251e-07
1.743517907e-07
3.723447187e-07
1.821222986e-07
3.833346045e-07
1.898895107e-07
3.936666593e-07
1.979866427e-07
4.03083057e-07
2.043134133e-07
4.109774979e-07
2.039052252e-07
4.245816754e-07
1.512884078e-07
3.719875437e-07
3.087122533e-06
2.146286937e-10
4.793170055e-09
8.586366103e-10
1.437691189e-08
1.930119257e-09
2.397668262e-08
3.426574092e-09
3.360630808e-08
5.344437365e-09
4.327871734e-08
7.678983577e-09
5.300704002e-08
1.042425429e-08
6.28047249e-08
1.357295685e-08
7.268559333e-08
1.711636606e-08
8.266384371e-08
2.104422434e-08
9.275401595e-08
2.534464998e-08
1.029708387e-07
3.000406142e-08
1.133290309e-07
3.500712461e-08
1.238430318e-07
4.033673187e-08
1.345266587e-07
4.597402024e-08
1.453926962e-07
5.1898437e-08
1.564524168e-07
5.808785979e-08
1.677150392e-07
6.451877708e-08
1.791871284e-07
7.116653385e-08
1.908719482e-07
7.800564478e-08
2.027687735e-07
8.501017502e-08
2.148721765e-07
9.215418519e-08
2.271712982e-07
9.941223312e-08
2.396491215e-07
1.067599222e-07
2.522817586e-07
1.141744836e-07
2.650377778e-07
1.216353538e-07
2.778776331e-07
1.291245084e-07
2.907530148e-07
1.366273339e-07
3.036062286e-07
1.441327041e-07
3.16370508e-07
1.516331779e-07
3.289693233e-07
1.591246392e-07
3.41316867e-07
1.666057629e-07
3.533188301e-07
1.740769328e-07
3.648733693e-07
1.815412851e-07
3.758698274e-07
1.889634946e-07
3.862421804e-07
1.966187605e-07
3.954337502e-07
2.023975992e-07
4.051640148e-07
1.989246791e-07
4.088252026e-07
1.435894027e-07
4.069464888e-07
3.287116362e-06
2.164746623e-10
4.57666636e-09
8.660962034e-10
1.372810878e-08
1.9469706e-09
2.289709913e-08
3.456695039e-09
3.20983533e-08
5.391833896e-09
4.134583129e-08
7.747809932e-09
5.065378191e-08
1.051881884e-08
6.003687879e-08
1.369770705e-08
6.95102892e-08
1.727585134e-08
7.908967521e-08
2.124303639e-08
8.879116503e-08
2.558733703e-08
9.863119295e-08
3.029501585e-08
1.08626286e-07
3.535044389e-08
1.187927708e-07
4.073605293e-08
1.291463999e-07
4.64323284e-08
1.397019009e-07
5.241785119e-08
1.504724478e-07
5.866939656e-08
1.614690621e-07
6.516209685e-08
1.726999501e-07
7.186967316e-08
1.841697858e-07
7.876473941e-08
1.958789513e-07
8.581917921e-08
2.078227497e-07
9.300459296e-08
2.199906075e-07
1.002928079e-07
2.323652837e-07
1.076564446e-07
2.449221018e-07
1.150695199e-07
2.576282388e-07
1.225080591e-07
2.704421483e-07
1.299505513e-07
2.833130675e-07
1.373786068e-07
2.961801744e-07
1.447775798e-07
3.089729912e-07
1.521364855e-07
3.216113334e-07
1.594479336e-07
3.340058155e-07
1.667080498e-07
3.460586358e-07
1.739157773e-07
3.576651196e-07
1.810742286e-07
3.687105567e-07
1.881568279e-07
3.791564171e-07
1.953531983e-07
3.882423891e-07
2.007329141e-07
3.99749477e-07
1.946550021e-07
3.936674449e-07
1.364863152e-07
4.446986554e-07
3.481989207e-06
2.184642178e-10
4.358153454e-09
8.741362309e-10
1.307328399e-08
1.965146305e-09
2.180741624e-08
3.489215574e-09
3.05761025e-08
5.443067613e-09
3.939429422e-08
7.822310261e-09
4.827733299e-08
1.062133367e-08
5.724110758e-08
1.383316555e-08
6.63021443e-08
1.74493261e-08
7.547760696e-08
2.145968048e-08
8.47852745e-08
2.585229165e-08
9.424337907e-08
3.061328823e-08
1.038703776e-07
3.572675499e-08
1.136846358e-07
4.117465531e-08
1.237040238e-07
4.693679546e-08
1.33945422e-07
5.299083986e-08
1.444241429e-07
5.931238656e-08
1.551532714e-07
6.587511052e-08
1.661429346e-07
7.265098071e-08
1.77399511e-07
7.961055558e-08
1.889247928e-07
8.672335832e-08
2.007151189e-07
9.395833024e-08
2.127604993e-07
1.012843577e-07
2.250437508e-07
1.086708637e-07
2.375396645e-07
1.160884354e-07
2.502142589e-07
1.235094833e-07
2.630241705e-07
1.309089234e-07
2.75916145e-07
1.382645324e-07
2.888264931e-07
1.455580455e-07
3.016808011e-07
1.527749766e-07
3.143951248e-07
1.599049657e-07
3.268759644e-07
1.669419307e-07
3.390212689e-07
1.738835784e-07
3.507225926e-07
1.807332344e-07
3.618597387e-07
1.874731167e-07
3.724130273e-07
1.94249859e-07
3.814691994e-07
1.993167578e-07
3.94646219e-07
1.90746189e-07
3.789637912e-07
1.299217683e-07
4.850997906e-07
3.672127804e-06
2.205900491e-10
4.137494717e-09
8.82727694e-10
1.241202426e-08
1.984582751e-09
2.070692747e-08
3.524027587e-09
2.903852893e-08
5.497980938e-09
3.742272315e-08
7.902278684e-09
4.587591125e-08
1.073155362e-08
5.441518208e-08
1.397906591e-08
6.30584311e-08
1.763653001e-08
7.182436244e-08
2.169393999e-08
8.073247038e-08
2.613938906e-08
8.980288353e-08
3.095890428e-08
9.905612006e-08
3.61363031e-08
1.085127506e-07
4.16530823e-08
1.181929611e-07
4.748835014e-08
1.281160163e-07
5.361881206e-08
1.382996273e-07
6.001881993e-08
1.487592293e-07
6.666049398e-08
1.595071782e-07
7.351392434e-08
1.705518808e-07
8.054745817e-08
1.818968711e-07
8.772807503e-08
1.93539856e-07
9.502185089e-08
2.054717503e-07
1.02394509e-07
2.176757261e-07
1.098120416e-07
2.301263099e-07
1.172413635e-07
2.427886024e-07
1.246510643e-07
2.556175725e-07
1.320122042e-07
2.685575048e-07
1.392988537e-07
2.815417143e-07
1.464887492e-07
2.944921057e-07
1.535641334e-07
3.073202761e-07
1.605118341e-07
3.199281438e-07
1.673235963e-07
3.322087645e-07
1.739960602e-07
3.440488398e-07
1.805319375e-07
3.553223406e-07
1.869112294e-07
3.660307527e-07
1.933274117e-07
3.750552213e-07
1.981716336e-07
3.897605533e-07
1.875043281e-07
3.643583022e-07
1.237293633e-07
5.284615314e-07
3.857779426e-06
2.228431022e-10
3.914562539e-09
8.918347196e-10
1.174394315e-08
2.005201389e-09
1.959496904e-08
3.560997673e-09
2.748466063e-08
5.556378846e-09
3.542979678e-08
7.987458742e-09
4.344779618e-08
1.084916942e-08
5.1556926e-08
1.413506474e-08
5.977645639e-08
1.783711482e-08
6.812667023e-08
2.194550246e-08
7.662884332e-08
2.644840508e-08
8.530510511e-08
3.13317923e-08
9.417817634e-08
3.657924473e-08
1.032710115e-07
4.217180519e-08
1.126063292e-07
4.808787484e-08
1.222060308e-07
5.43031657e-08
1.320905122e-07
6.079072077e-08
1.422778735e-07
6.752101215e-08
1.527830386e-07
7.446212569e-08
1.636167976e-07
8.158003911e-08
1.747847915e-07
8.883899857e-08
1.862864583e-07
9.62019977e-08
1.981139666e-07
1.03631355e-07
2.102511658e-07
1.110893642e-07
2.226726109e-07
1.185390132e-07
2.353427142e-07
1.259448203e-07
2.482149208e-07
1.332736976e-07
2.612311302e-07
1.404957836e-07
2.743214492e-07
1.475848598e-07
2.874041329e-07
1.545197814e-07
3.00385717e-07
1.612846765e-07
3.131628848e-07
1.678691987e-07
3.256231658e-07
1.742687301e-07
3.37647585e-07
1.804872959e-07
3.491017994e-07
1.865192384e-07
3.599955865e-07
1.925501199e-07
3.690261703e-07
1.971389148e-07
3.851249535e-07
1.844729889e-07
3.498660865e-07
1.179171995e-07
5.746185856e-07
4.039245443e-06
2.252123707e-10
3.689240276e-09
9.014137144e-10
1.106868684e-08
2.026906734e-09
1.8470929e-08
3.599963423e-09
2.591359261e-08
5.618023033e-09
3.341426966e-08
8.077535097e-09
4.099134432e-08
1.097379638e-08
4.86642325e-08
1.430072702e-08
5.645357749e-08
1.80506266e-08
6.438127811e-08
2.221393872e-08
7.24704596e-08
2.677899199e-08
8.07453617e-08
3.173175617e-08
8.923105839e-08
3.705561831e-08
9.795308125e-08
4.2731192e-08
1.069369167e-07
4.873617297e-08
1.162073785e-07
5.504525443e-08
1.257878601e-07
6.163011455e-08
1.356994721e-07
6.845948788e-08
1.459600778e-07
7.549933137e-08
1.565832424e-07
8.27130929e-08
1.675771137e-07
9.006208896e-08
1.789432605e-07
9.750599736e-08
1.906754905e-07
1.050034623e-07
2.027586891e-07
1.125127754e-07
2.151677673e-07
1.199927212e-07
2.278666497e-07
1.274034485e-07
2.408074249e-07
1.34707419e-07
2.539296881e-07
1.418704198e-07
2.671602326e-07
1.488624318e-07
2.804131429e-07
1.556584632e-07
2.935898996e-07
1.622399611e-07
3.065808046e-07
1.685947716e-07
3.192669879e-07
1.747169689e-07
3.315232774e-07
1.80610505e-07
3.432058307e-07
1.862811459e-07
3.543212903e-07
1.918931608e-07
3.634152682e-07
1.960997548e-07
3.80858884e-07
1.81067345e-07
3.360287205e-07
1.125378943e-07
6.227653393e-07
4.216890681e-06
2.276846543e-10
3.461424456e-09
9.114123317e-10
1.03859406e-08
2.049584038e-09
1.73342578e-08
3.640729161e-09
2.432450072e-08
5.682625248e-09
3.137498892e-08
8.172124538e-09
3.850500712e-08
1.110496215e-08
4.573508399e-08
1.447550934e-08
5.308722305e-08
1.827648604e-08
6.058496998e-08
2.249867937e-08
6.825337606e-08
2.713065166e-08
7.611890054e-08
3.215844521e-08
8.420913153e-08
3.756531125e-08
9.255238555e-08
4.333147234e-08
1.011771715e-07
4.943393258e-08
1.101115158e-07
5.584635093e-08
1.193821509e-07
6.253899203e-08
1.290135767e-07
6.947876785e-08
1.390270049e-07
7.662938219e-08
1.494392049e-07
8.395158867e-08
1.602612724e-07
9.140357024e-08
1.714973455e-07
9.89414424e-08
1.831432995e-07
1.065198695e-07
1.95185473e-07
1.140928304e-07
2.075994655e-07
1.216145444e-07
2.203489671e-07
1.290404574e-07
2.333848466e-07
1.36328239e-07
2.466444857e-07
1.434389646e-07
2.600512834e-07
1.503383586e-07
2.735146963e-07
1.569976508e-07
2.869307097e-07
1.633950731e-07
3.00182608e-07
1.695167554e-07
3.131436996e-07
1.753562807e-07
3.256813704e-07
1.809197168e-07
3.376394868e-07
1.862036337e-07
3.490326023e-07
1.91376845e-07
3.582429482e-07
1.952097897e-07
3.769761192e-07
1.778089713e-07
3.231177905e-07
1.074676144e-07
6.725118381e-07
4.390965967e-06
2.302442668e-10
3.231027268e-09
9.217683082e-10
9.695436261e-09
2.0730966e-09
1.618448025e-08
3.683061209e-09
2.271665775e-08
5.749839672e-09
2.931091379e-08
8.270762907e-09
3.598735427e-08
1.124209228e-08
4.276757335e-08
1.465874544e-08
4.967491382e-08
1.851396679e-08
5.673458999e-08
2.279898882e-08
6.397365918e-08
2.750270567e-08
7.142091233e-08
3.261132073e-08
7.910662223e-08
3.810802342e-08
8.706211269e-08
4.39726986e-08
9.531919049e-08
5.018168593e-08
1.039094205e-07
5.670760598e-08
1.128632478e-07
6.351926951e-08
1.222089763e-07
7.058168522e-08
1.319716144e-07
7.785617992e-08
1.421716092e-07
8.530064335e-08
1.528234903e-07
9.286990659e-08
1.639344525e-07
1.005162555e-07
1.755029164e-07
1.081900742e-07
1.875171235e-07
1.15840689e-07
1.999537345e-07
1.234173297e-07
2.127765414e-07
1.308702707e-07
2.259353756e-07
1.381520364e-07
2.393653794e-07
1.45218596e-07
2.529865197e-07
1.520308549e-07
2.667033321e-07
1.585560798e-07
2.80405478e-07
1.647689278e-07
2.93968833e-07
1.706534207e-07
3.072573716e-07
1.762028843e-07
3.201292299e-07
1.814289116e-07
3.324105922e-07
1.863071815e-07
3.441484781e-07
1.910305039e-07
3.535191372e-07
1.94439063e-07
3.734814975e-07
1.743912025e-07
3.111261286e-07
1.026413464e-07
7.237795249e-07
4.561692996e-06
2.328726926e-10
2.997979411e-09
9.324081305e-10
8.996960618e-09
2.097282813e-09
1.502120918e-08
3.72668259e-09
2.108945179e-08
5.819254925e-09
2.722113781e-08
8.372895977e-09
3.343709839e-08
1.138449607e-08
3.975992986e-08
1.484962438e-08
4.621429059e-08
1.876216939e-08
5.282707138e-08
2.311393638e-08
5.962740714e-08
2.789426192e-08
6.664654986e-08
3.308961876e-08
7.391762975e-08
3.868322642e-08
8.14752166e-08
4.465470253e-08
8.935471172e-08
5.097976475e-08
9.759157247e-08
5.763000356e-08
1.062203641e-07
6.457274478e-08
1.152736482e-07
7.177101857e-08
1.24780723e-07
7.918365113e-08
1.347662345e-07
8.676549294e-08
1.452486842e-07
9.44677922e-08
1.562388667e-07
1.022387157e-07
1.677382834e-07
1.100240527e-07
1.79737554e-07
1.177680914e-07
1.922148438e-07
1.254146501e-07
2.051344197e-07
1.329082974e-07
2.184453708e-07
1.401958282e-07
2.32080623e-07
1.472277156e-07
2.459564788e-07
1.539595646e-07
2.59972359e-07
1.603539708e-07
2.740109549e-07
1.663821329e-07
2.87939589e-07
1.720253518e-07
3.016120929e-07
1.772762118e-07
3.148753255e-07
1.821474677e-07
3.275359558e-07
1.866124192e-07
3.396776312e-07
1.908627394e-07
3.492671894e-07
1.93779753e-07
3.704255915e-07
1.712305689e-07
3.000152512e-07
9.805828441e-08
7.76583989e-07
4.72925482e-06
2.355482384e-10
2.762233278e-09
9.432455755e-10
8.290364903e-09
2.121952842e-09
1.384416092e-08
3.771267182e-09
1.944240705e-08
5.890384956e-09
2.510491433e-08
8.477866e-09
3.085312372e-08
1.153134524e-08
3.671055284e-08
1.504716888e-08
4.270314374e-08
1.901999982e-08
4.885946467e-08
2.344236372e-08
5.521078251e-08
2.830417743e-08
6.179095127e-08
3.359230815e-08
6.863614248e-08
3.929011808e-08
7.578442354e-08
4.53770469e-08
8.327511002e-08
5.182824997e-08
9.114793558e-08
5.861431029e-08
9.944202968e-08
6.570104824e-08
1.08194709e-07
7.304944631e-08
1.174401028e-07
8.06157071e-08
1.27207631e-07
8.835146071e-08
1.375203631e-07
9.620413063e-08
1.483932973e-07
1.041174723e-07
1.598316015e-07
1.120323127e-07
1.718288249e-07
1.198874702e-07
1.843651437e-07
1.276208769e-07
1.974057166e-07
1.351708975e-07
2.108992079e-07
1.424779016e-07
2.247765485e-07
1.494861618e-07
2.389501523e-07
1.561455588e-07
2.533138504e-07
1.624134238e-07
2.677429025e-07
1.682568509e-07
2.820949074e-07
1.73654565e-07
2.96212094e-07
1.785979979e-07
3.099284851e-07
1.830991016e-07
3.23030989e-07
1.871413742e-07
3.356290689e-07
1.909009082e-07
3.45505397e-07
1.932793948e-07
3.678149458e-07
1.682837654e-07
2.897496732e-07
9.372488279e-08
8.309530142e-07
4.893847743e-06
2.382456295e-10
2.523766558e-09
9.541800972e-10
7.575575521e-09
2.146885022e-09
1.265317278e-08
3.816433319e-09
1.777520758e-08
5.962659021e-09
2.296168557e-08
8.584896502e-09
2.823452008e-08
1.168165516e-08
3.36180501e-08
1.525020994e-08
3.91394472e-08
1.92861421e-08
4.48289676e-08
2.37828516e-08
5.07200524e-08
2.873101642e-08
5.684927146e-08
3.411804436e-08
6.325605868e-08
3.992757132e-08
6.998224358e-08
4.613897125e-08
7.707139543e-08
5.272691573e-08
8.456794112e-08
5.966101901e-08
9.251605852e-08
6.69055878e-08
1.009583632e-07
7.441949509e-08
1.099344104e-07
8.215619827e-08
1.194790289e-07
9.00639218e-08
1.296205157e-07
9.808601506e-08
1.403787403e-07
1.061615074e-07
1.517631887e-07
1.142258684e-07
1.637709698e-07
1.222119789e-07
1.763848513e-07
1.300513363e-07
1.895713803e-07
1.376755044e-07
2.032791622e-07
1.450178109e-07
2.174373746e-07
1.520154042e-07
2.319546243e-07
1.586116652e-07
2.46718529e-07
1.647581649e-07
2.61596178e-07
1.704171603e-07
2.764345114e-07
1.755643186e-07
2.910624025e-07
1.801901057e-07
3.05298973e-07
1.843057675e-07
3.189110284e-07
1.879099993e-07
3.320181947e-07
1.911552492e-07
3.422569839e-07
1.929277484e-07
3.656601298e-07
1.65489926e-07
2.803058984e-07
8.961499259e-08
8.868790899e-07
5.055645535e-06
2.409355573e-10
2.28258629e-09
9.650950842e-10
6.852606036e-09
2.171821955e-09
1.144822263e-08
3.86173682e-09
1.608772395e-08
6.035410819e-09
2.079111564e-08
8.693077501e-09
2.558062073e-08
1.183426757e-08
3.048127756e-08
1.545734971e-08
3.552141476e-08
1.955901249e-08
4.073296289e-08
2.413369788e-08
4.615160289e-08
2.91730131e-08
5.181673091e-08
3.466511522e-08
5.777122322e-08
4.05940785e-08
6.406098397e-08
4.693933127e-08
7.073421642e-08
5.367516666e-08
7.784047383e-08
6.077028597e-08
8.542951577e-08
6.818748761e-08
9.35498509e-08
7.588348247e-08
1.022471133e-07
8.380886361e-08
1.115622418e-07
9.190826167e-08
1.215294894e-07
1.001206945e-07
1.32174334e-07
1.083801269e-07
1.435113116e-07
1.166162505e-07
1.555418046e-07
1.247555013e-07
1.682518378e-07
1.327223432e-07
1.816099355e-07
1.404408392e-07
1.955651111e-07
1.478365293e-07
2.100450762e-07
1.548386319e-07
2.24954772e-07
1.61382785e-07
2.401754156e-07
1.674140416e-07
2.555647019e-07
1.72889155e-07
2.709578981e-07
1.77779963e-07
2.861688226e-07
1.820756215e-07
3.009992568e-07
1.857875685e-07
3.151944046e-07
1.889336925e-07
3.288650059e-07
1.916469485e-07
3.395390508e-07
1.927284343e-07
3.639638387e-07
1.627919368e-07
2.728985309e-07
8.569448821e-08
9.443363574e-07
5.214786261e-06
2.435842227e-10
2.038733372e-09
9.758559138e-10
6.121570649e-09
2.196466122e-09
1.022945099e-08
3.906663304e-09
1.43800433e-08
6.107866541e-09
1.859312771e-08
8.801348278e-09
2.289104551e-08
1.198782563e-08
2.7299387e-08
1.566694746e-08
3.184754414e-08
1.983671279e-08
3.656909136e-08
2.449283099e-08
4.150199222e-08
2.962804054e-08
4.668860556e-08
3.523141436e-08
5.217546392e-08
4.128768432e-08
5.801280134e-08
4.777653224e-08
6.425386289e-08
5.467196743e-08
7.095386185e-08
6.194185864e-08
7.816868675e-08
6.954751826e-08
8.595339273e-08
7.744345139e-08
9.436041076e-08
8.557727235e-08
1.034375616e-07
9.388982858e-08
1.132258578e-07
1.023155381e-07
1.237572014e-07
1.107829441e-07
1.350519998e-07
1.192155116e-07
1.471167126e-07
1.275326867e-07
1.599413855e-07
1.356512478e-07
1.734972143e-07
1.434869847e-07
1.877342087e-07
1.509567472e-07
2.025790302e-07
1.579808918e-07
2.179331267e-07
1.644861945e-07
2.33671314e-07
1.704095664e-07
2.496411718e-07
1.757015356e-07
2.656643793e-07
1.803293662e-07
2.815380516e-07
1.842804357e-07
2.970437939e-07
1.875665593e-07
3.119031903e-07
1.902223804e-07
3.262015738e-07
1.92366595e-07
3.37389139e-07
1.926394228e-07
3.627368394e-07
1.601731397e-07
2.677250313e-07
8.193786456e-08
1.003303278e-06
5.37138815e-06
2.461527288e-10
1.792287693e-09
9.863076954e-10
5.382699319e-09
2.220474945e-09
8.997185733e-09
3.950619406e-09
1.265250312e-08
6.179131395e-09
1.636794594e-08
8.908478037e-09
2.016574983e-08
1.214074802e-08
2.407188036e-08
1.587708076e-08