/*--------------------------------*- C++ -*----------------------------------*\
| =========                 |                                                 |
| \\      /  F ield         | OpenFOAM: The Open Source CFD Toolbox           |
|  \\    /   O peration     | Version:  v1912                                 |
|   \\  /    A nd           | Website:  www.openfoam.com                      |
|    \\/     M anipulation  |                                                 |
\*---------------------------------------------------------------------------*/
FoamFile
{
    version     2.0;
    format      ascii;
    class       volScalarField;
    location    "0.7";
    object      T.gas;
}
// * * * * * * * * * * * * * * * * * * * * * * * * * * * * * * * * * * * * * //

dimensions      [0 0 0 1 0 0 0];


internalField   nonuniform List<scalar> 
4800
(
111.5400524
111.5400524
111.5400524
111.5400524
111.5400524
111.5400523
111.5400523
111.5400523
111.5400523
111.5400523
111.5400523
111.5400523
111.5400523
111.5400523
111.5400523
111.5400523
111.5400522
111.5400522
111.5400522
111.5400522
111.5400522
111.5400522
111.5400521
111.5400521
111.5400521
111.5400521
111.5400521
111.5400521
111.540052
111.540052
111.5400516
111.5400546
111.5400343
111.5401492
111.5396163
111.5415731
111.5360636
111.5474483
111.5343081
111.5380072
111.5400412
111.5400412
111.5400412
111.5400412
111.5400412
111.5400412
111.5400412
111.5400412
111.5400412
111.5400411
111.5400411
111.5400411
111.5400411
111.5400411
111.5400411
111.540041
111.540041
111.540041
111.540041
111.5400409
111.5400409
111.5400409
111.5400409
111.5400408
111.5400408
111.5400408
111.5400407
111.5400407
111.5400406
111.5400406
111.5400403
111.5400423
111.5400283
111.5401066
111.5397449
111.541071
111.5373235
111.5451136
111.5379901
111.5380034
111.54003
111.54003
111.54003
111.54003
111.54003
111.54003
111.54003
111.54003
111.54003
111.5400299
111.5400299
111.5400299
111.5400299
111.5400299
111.5400298
111.5400298
111.5400298
111.5400297
111.5400297
111.5400297
111.5400296
111.5400296
111.5400295
111.5400295
111.5400294
111.5400294
111.5400293
111.5400293
111.5400292
111.5400291
111.5400289
111.54003
111.5400209
111.540073
111.5398219
111.5407885
111.5378818
111.54445
111.5380492
111.538002
111.5400189
111.5400189
111.5400189
111.5400189
111.5400188
111.5400188
111.5400188
111.5400188
111.5400188
111.5400187
111.5400187
111.5400187
111.5400187
111.5400186
111.5400186
111.5400186
111.5400185
111.5400185
111.5400184
111.5400184
111.5400183
111.5400183
111.5400182
111.5400182
111.5400181
111.540018
111.5400179
111.5400179
111.5400178
111.5400177
111.5400174
111.5400182
111.5400112
111.5400518
111.5398509
111.5406429
111.5381975
111.5439093
111.5380912
111.5379977
111.5400077
111.5400077
111.5400077
111.5400077
111.5400077
111.5400077
111.5400076
111.5400076
111.5400076
111.5400076
111.5400075
111.5400075
111.5400075
111.5400074
111.5400074
111.5400073
111.5400073
111.5400072
111.5400072
111.5400071
111.5400071
111.540007
111.5400069
111.5400068
111.5400068
111.5400067
111.5400066
111.5400065
111.5400063
111.5400062
111.5400059
111.5400066
111.5400006
111.5400352
111.5398613
111.5405549
111.5383893
111.5434982
111.5380478
111.5379977
111.5399965
111.5399965
111.5399965
111.5399965
111.5399965
111.5399965
111.5399965
111.5399964
111.5399964
111.5399964
111.5399963
111.5399963
111.5399962
111.5399962
111.5399962
111.5399961
111.539996
111.539996
111.5399959
111.5399959
111.5399958
111.5399957
111.5399956
111.5399955
111.5399954
111.5399953
111.5399952
111.5399951
111.5399949
111.5399948
111.5399945
111.539995
111.5399896
111.5400208
111.5398623
111.540498
111.5385138
111.5431688
111.5381641
111.5379983
111.5399854
111.5399854
111.5399854
111.5399854
111.5399853
111.5399853
111.5399853
111.5399853
111.5399852
111.5399852
111.5399851
111.5399851
111.539985
111.539985
111.5399849
111.5399849
111.5399848
111.5399847
111.5399847
111.5399846
111.5399845
111.5399844
111.5399843
111.5399842
111.5399841
111.539984
111.5399839
111.5399837
111.5399835
111.5399834
111.5399831
111.5399835
111.5399785
111.5400072
111.5398595
111.5404556
111.5385939
111.5429166
111.5380196
111.538003
111.5399742
111.5399742
111.5399742
111.5399742
111.5399742
111.5399742
111.5399741
111.5399741
111.5399741
111.539974
111.539974
111.5399739
111.5399738
111.5399738
111.5399737
111.5399737
111.5399736
111.5399735
111.5399734
111.5399733
111.5399732
111.5399731
111.539973
111.5399729
111.5399728
111.5399727
111.5399725
111.5399724
111.5399722
111.539972
111.5399717
111.539972
111.5399674
111.5399941
111.5398549
111.5404199
111.5386673
111.5426351
111.5379669
111.5380028
111.5399631
111.5399631
111.5399631
111.5399631
111.539963
111.539963
111.539963
111.5399629
111.5399629
111.5399628
111.5399628
111.5399627
111.5399627
111.5399626
111.5399625
111.5399624
111.5399624
111.5399623
111.5399622
111.5399621
111.539962
111.5399619
111.5399618
111.5399616
111.5399615
111.5399613
111.5399612
111.539961
111.5399608
111.5399606
111.5399603
111.5399605
111.5399563
111.5399808
111.5398509
111.5403844
111.5387272
111.5424218
111.5379609
111.5379998
111.539952
111.539952
111.5399519
111.5399519
111.5399519
111.5399519
111.5399518
111.5399518
111.5399517
111.5399517
111.5399516
111.5399515
111.5399515
111.5399514
111.5399513
111.5399512
111.5399511
111.539951
111.5399509
111.5399508
111.5399507
111.5399506
111.5399505
111.5399503
111.5399502
111.53995
111.5399499
111.5399497
111.5399495
111.5399493
111.539949
111.5399491
111.5399454
111.5399673
111.5398485
111.5403411
111.5388081
111.5422057
111.5379657
111.5379975
111.5399408
111.5399408
111.5399408
111.5399408
111.5399408
111.5399407
111.5399407
111.5399406
111.5399406
111.5399405
111.5399404
111.5399404
111.5399403
111.5399402
111.5399401
111.53994
111.5399399
111.5399398
111.5399397
111.5399396
111.5399395
111.5399394
111.5399392
111.5399391
111.5399389
111.5399388
111.5399386
111.5399384
111.5399382
111.5399379
111.5399376
111.5399377
111.5399344
111.5399541
111.5398454
111.5403032
111.5388627
111.5420557
111.5379704
111.5379974
111.5399297
111.5399297
111.5399297
111.5399297
111.5399296
111.5399296
111.5399295
111.5399295
111.5399294
111.5399294
111.5399293
111.5399292
111.5399291
111.539929
111.5399289
111.5399288
111.5399287
111.5399286
111.5399285
111.5399284
111.5399282
111.5399281
111.539928
111.5399278
111.5399276
111.5399275
111.5399273
111.5399271
111.5399269
111.5399266
111.5399263
111.5399264
111.5399234
111.5399409
111.5398423
111.5402644
111.5389187
111.5419153
111.5379746
111.537999
111.5399186
111.5399186
111.5399186
111.5399185
111.5399185
111.5399185
111.5399184
111.5399184
111.5399183
111.5399182
111.5399181
111.5399181
111.539918
111.5399179
111.5399178
111.5399176
111.5399175
111.5399174
111.5399173
111.5399172
111.539917
111.5399169
111.5399167
111.5399166
111.5399164
111.5399162
111.539916
111.5399158
111.5399156
111.5399153
111.539915
111.539915
111.5399124
111.5399278
111.5398387
111.5402281
111.5389677
111.5416611
111.5379769
111.5380015
111.5399075
111.5399075
111.5399075
111.5399074
111.5399074
111.5399074
111.5399073
111.5399072
111.5399072
111.5399071
111.539907
111.5399069
111.5399068
111.5399067
111.5399066
111.5399065
111.5399063
111.5399062
111.5399061
111.5399059
111.5399058
111.5399056
111.5399055
111.5399053
111.5399051
111.539905
111.5399048
111.5399046
111.5399043
111.5399041
111.5399038
111.5399037
111.5399014
111.539915
111.5398347
111.5401925
111.5390147
111.5412368
111.5379789
111.5380038
111.5398964
111.5398964
111.5398964
111.5398963
111.5398963
111.5398962
111.5398962
111.5398961
111.539896
111.539896
111.5398959
111.5398958
111.5398957
111.5398955
111.5398954
111.5398953
111.5398952
111.539895
111.5398949
111.5398947
111.5398946
111.5398944
111.5398943
111.5398941
111.5398939
111.5398937
111.5398935
111.5398933
111.5398931
111.5398928
111.5398925
111.5398924
111.5398905
111.5399023
111.5398302
111.5401584
111.5390578
111.5407135
111.5379802
111.5380053
111.5398853
111.5398853
111.5398853
111.5398853
111.5398852
111.5398852
111.5398851
111.539885
111.5398849
111.5398848
111.5398847
111.5398846
111.5398845
111.5398844
111.5398843
111.5398841
111.539884
111.5398838
111.5398837
111.5398835
111.5398834
111.5398832
111.539883
111.5398829
111.5398827
111.5398825
111.5398823
111.5398821
111.5398818
111.5398816
111.5398813
111.5398812
111.5398795
111.5398898
111.5398252
111.5401249
111.5391005
111.5401694
111.5379805
111.5380057
111.5398743
111.5398742
111.5398742
111.5398742
111.5398741
111.5398741
111.539874
111.5398739
111.5398738
111.5398737
111.5398736
111.5398735
111.5398734
111.5398733
111.5398731
111.539873
111.5398728
111.5398727
111.5398725
111.5398724
111.5398722
111.539872
111.5398718
111.5398717
111.5398715
111.5398713
111.5398711
111.5398709
111.5398706
111.5398704
111.5398701
111.53987
111.5398685
111.5398774
111.5398198
111.5400931
111.53914
111.5396689
111.5379807
111.538005
111.5398632
111.5398632
111.5398632
111.5398631
111.5398631
111.539863
111.5398629
111.5398629
111.5398628
111.5398626
111.5398625
111.5398624
111.5398623
111.5398621
111.539862
111.5398618
111.5398617
111.5398615
111.5398614
111.5398612
111.539861
111.5398608
111.5398606
111.5398605
111.5398603
111.5398601
111.5398599
111.5398597
111.5398594
111.5398592
111.5398589
111.5398588
111.5398575
111.5398651
111.5398142
111.5400615
111.5391811
111.5392079
111.5379802
111.538004
111.5398522
111.5398522
111.5398521
111.5398521
111.539852
111.539852
111.5398519
111.5398518
111.5398517
111.5398516
111.5398514
111.5398513
111.5398512
111.539851
111.5398509
111.5398507
111.5398505
111.5398504
111.5398502
111.53985
111.5398498
111.5398496
111.5398495
111.5398493
111.5398491
111.5398489
111.5398487
111.5398485
111.5398482
111.539848
111.5398478
111.5398476
111.5398465
111.539853
111.5398082
111.5400315
111.5392184
111.5388072
111.5379802
111.5380031
111.5398411
111.5398411
111.5398411
111.5398411
111.539841
111.5398409
111.5398408
111.5398407
111.5398406
111.5398405
111.5398404
111.5398402
111.5398401
111.5398399
111.5398398
111.5398396
111.5398394
111.5398392
111.539839
111.5398389
111.5398387
111.5398385
111.5398383
111.5398381
111.5398379
111.5398377
111.5398375
111.5398373
111.5398371
111.5398368
111.5398366
111.5398364
111.5398355
111.539841
111.5398018
111.5400023
111.5392544
111.5384614
111.537981
111.5380026
111.5398301
111.5398301
111.5398301
111.53983
111.53983
111.5398299
111.5398298
111.5398297
111.5398296
111.5398295
111.5398293
111.5398292
111.539829
111.5398288
111.5398286
111.5398285
111.5398283
111.5398281
111.5398279
111.5398277
111.5398275
111.5398273
111.5398271
111.5398269
111.5398267
111.5398265
111.5398263
111.5398261
111.5398259
111.5398257
111.5398255
111.5398253
111.5398245
111.539829
111.539795
111.5399747
111.5392865
111.5381652
111.5379824
111.5380026
111.5398191
111.5398191
111.5398191
111.5398191
111.539819
111.5398189
111.5398188
111.5398187
111.5398186
111.5398184
111.5398183
111.5398181
111.5398179
111.5398177
111.5398176
111.5398174
111.5398172
111.539817
111.5398168
111.5398166
111.5398164
111.5398161
111.5398159
111.5398157
111.5398155
111.5398154
111.5398152
111.539815
111.5398148
111.5398145
111.5398143
111.5398141
111.5398135
111.5398172
111.539788
111.5399472
111.5393191
111.5379135
111.5379842
111.5380031
111.5398082
111.5398082
111.5398081
111.5398081
111.539808
111.5398079
111.5398078
111.5398077
111.5398075
111.5398074
111.5398072
111.5398071
111.5398069
111.5398067
111.5398065
111.5398063
111.5398061
111.5398058
111.5398056
111.5398054
111.5398052
111.539805
111.5398048
111.5398046
111.5398044
111.5398042
111.539804
111.5398038
111.5398036
111.5398034
111.5398032
111.539803
111.5398025
111.5398054
111.5397808
111.5399208
111.5393491
111.5379069
111.5379863
111.538004
111.5397972
111.5397972
111.5397972
111.5397971
111.539797
111.539797
111.5397968
111.5397967
111.5397966
111.5397964
111.5397962
111.539796
111.5397958
111.5397956
111.5397954
111.5397952
111.539795
111.5397947
111.5397945
111.5397943
111.5397941
111.5397938
111.5397936
111.5397934
111.5397932
111.539793
111.5397928
111.5397927
111.5397925
111.5397923
111.5397921
111.5397919
111.5397915
111.5397937
111.5397734
111.5398946
111.5393797
111.5379026
111.5379884
111.5380049
111.5397863
111.5397863
111.5397863
111.5397862
111.5397861
111.539786
111.5397859
111.5397857
111.5397856
111.5397854
111.5397852
111.539785
111.5397848
111.5397846
111.5397844
111.5397841
111.5397839
111.5397836
111.5397834
111.5397832
111.5397829
111.5397827
111.5397825
111.5397823
111.5397821
111.5397819
111.5397817
111.5397815
111.5397813
111.5397812
111.539781
111.5397808
111.5397805
111.539782
111.5397658
111.5398693
111.5394083
111.5379722
111.5379903
111.5380056
111.5397754
111.5397754
111.5397753
111.5397753
111.5397752
111.5397751
111.5397749
111.5397748
111.5397746
111.5397744
111.5397742
111.539774
111.5397738
111.5397736
111.5397733
111.5397731
111.5397728
111.5397726
111.5397723
111.539772
111.5397718
111.5397716
111.5397713
111.5397711
111.5397709
111.5397707
111.5397705
111.5397704
111.5397702
111.53977
111.5397699
111.5397697
111.5397695
111.5397704
111.5397579
111.5398448
111.5394367
111.5379634
111.5379925
111.5380068
111.5397645
111.5397645
111.5397645
111.5397644
111.5397643
111.5397642
111.539764
111.5397639
111.5397637
111.5397635
111.5397633
111.539763
111.5397628
111.5397625
111.5397623
111.539762
111.5397617
111.5397615
111.5397612
111.5397609
111.5397607
111.5397604
111.5397602
111.53976
111.5397598
111.5397596
111.5397594
111.5397592
111.5397591
111.5397589
111.5397588
111.5397586
111.5397585
111.5397589
111.5397499
111.5398212
111.5394628
111.5379548
111.5379946
111.5380087
111.5397537
111.5397537
111.5397536
111.5397535
111.5397534
111.5397533
111.5397532
111.539753
111.5397528
111.5397526
111.5397523
111.5397521
111.5397518
111.5397515
111.5397513
111.539751
111.5397507
111.5397504
111.5397501
111.5397498
111.5397496
111.5397493
111.5397491
111.5397488
111.5397486
111.5397484
111.5397482
111.5397481
111.5397479
111.5397478
111.5397477
111.5397475
111.5397475
111.5397474
111.5397416
111.5397983
111.5394869
111.5379483
111.5379972
111.5380112
111.5397429
111.5397428
111.5397428
111.5397427
111.5397426
111.5397425
111.5397423
111.5397421
111.5397419
111.5397417
111.5397414
111.5397411
111.5397409
111.5397406
111.5397403
111.53974
111.5397396
111.5397393
111.539739
111.5397387
111.5397384
111.5397382
111.5397379
111.5397377
111.5397375
111.5397373
111.5397371
111.5397369
111.5397368
111.5397367
111.5397366
111.5397365
111.5397366
111.5397359
111.5397332
111.5397762
111.5395093
111.5379407
111.5380001
111.5380142
111.5397321
111.539732
111.539732
111.5397319
111.5397318
111.5397316
111.5397315
111.5397313
111.539731
111.5397308
111.5397305
111.5397302
111.5397299
111.5397296
111.5397293
111.539729
111.5397286
111.5397283
111.539728
111.5397276
111.5397273
111.539727
111.5397268
111.5397265
111.5397263
111.5397261
111.5397259
111.5397258
111.5397257
111.5397256
111.5397255
111.5397254
111.5397256
111.5397245
111.5397247
111.5397545
111.5395304
111.5379317
111.5380032
111.5380178
111.5397213
111.5397213
111.5397212
111.5397211
111.539721
111.5397208
111.5397207
111.5397204
111.5397202
111.5397199
111.5397196
111.5397193
111.539719
111.5397187
111.5397183
111.539718
111.5397176
111.5397172
111.5397169
111.5397166
111.5397162
111.5397159
111.5397156
111.5397154
111.5397151
111.5397149
111.5397148
111.5397146
111.5397145
111.5397144
111.5397144
111.5397143
111.5397146
111.539713
111.5397162
111.5397332
111.5395502
111.537919
111.5380062
111.5380217
111.5397106
111.5397106
111.5397105
111.5397104
111.5397103
111.5397101
111.5397099
111.5397097
111.5397094
111.5397091
111.5397088
111.5397085
111.5397081
111.5397077
111.5397074
111.539707
111.5397066
111.5397062
111.5397058
111.5397055
111.5397051
111.5397048
111.5397045
111.5397042
111.539704
111.5397038
111.5397036
111.5397034
111.5397034
111.5397033
111.5397033
111.5397032
111.5397036
111.5397016
111.5397076
111.5397121
111.5395691
111.537908
111.5380082
111.5380251
111.5396999
111.5396999
111.5396998
111.5396997
111.5396995
111.5396994
111.5396992
111.5396989
111.5396986
111.5396983
111.539698
111.5396976
111.5396972
111.5396968
111.5396964
111.539696
111.5396956
111.5396952
111.5396948
111.5396944
111.539694
111.5396937
111.5396933
111.539693
111.5396928
111.5396926
111.5396924
111.5396923
111.5396922
111.5396921
111.5396922
111.5396921
111.5396927
111.5396901
111.5396992
111.539691
111.5395875
111.5380483
111.5380069
111.5380274
111.5396892
111.5396892
111.5396891
111.539689
111.5396889
111.5396887
111.5396884
111.5396882
111.5396879
111.5396875
111.5396872
111.5396868
111.5396864
111.539686
111.5396855
111.5396851
111.5396846
111.5396842
111.5396837
111.5396833
111.5396829
111.5396825
111.5396822
111.5396819
111.5396816
111.5396814
111.5396812
111.5396811
111.539681
111.539681
111.539681
111.539681
111.5396817
111.5396785
111.5396909
111.5396698
111.5396064
111.5380385
111.5380073
111.5380291
111.5396786
111.5396786
111.5396785
111.5396784
111.5396782
111.539678
111.5396778
111.5396775
111.5396772
111.5396768
111.5396764
111.539676
111.5396756
111.5396751
111.5396746
111.5396742
111.5396737
111.5396732
111.5396727
111.5396722
111.5396718
111.5396714
111.539671
111.5396707
111.5396704
111.5396701
111.5396699
111.5396698
111.5396698
111.5396698
111.5396699
111.5396698
111.5396708
111.5396669
111.539683
111.5396481
111.5396254
111.5380226
111.5380075
111.5380306
111.5396681
111.539668
111.5396679
111.5396678
111.5396676
111.5396674
111.5396672
111.5396669
111.5396665
111.5396661
111.5396657
111.5396653
111.5396648
111.5396643
111.5396638
111.5396633
111.5396627
111.5396622
111.5396617
111.5396612
111.5396607
111.5396602
111.5396598
111.5396595
111.5396591
111.5396589
111.5396587
111.5396586
111.5396585
111.5396585
111.5396587
111.5396587
111.5396599
111.539655
111.5396754
111.5396255
111.5396453
111.5380127
111.538008
111.5380318
111.5396575
111.5396575
111.5396574
111.5396573
111.5396571
111.5396569
111.5396566
111.5396562
111.5396559
111.5396555
111.539655
111.5396545
111.539654
111.5396535
111.539653
111.5396524
111.5396518
111.5396512
111.5396507
111.5396501
111.5396496
111.5396491
111.5396486
111.5396482
111.5396479
111.5396476
111.5396474
111.5396473
111.5396472
111.5396473
111.5396474
111.5396475
111.539649
111.5396431
111.5396683
111.5396023
111.5396655
111.5380035
111.5380088
111.538033
111.5396471
111.539647
111.5396469
111.5396468
111.5396466
111.5396463
111.539646
111.5396457
111.5396453
111.5396449
111.5396444
111.5396439
111.5396433
111.5396427
111.5396421
111.5396415
111.5396409
111.5396403
111.5396397
111.5396391
111.5396385
111.5396379
111.5396374
111.539637
111.5396366
111.5396363
111.5396361
111.5396359
111.5396359
111.539636
111.5396362
111.5396362
111.5396381
111.5396308
111.539662
111.539578
111.5396859
111.5379931
111.5380098
111.538034
111.5396366
111.5396366
111.5396365
111.5396363
111.5396361
111.5396359
111.5396355
111.5396352
111.5396348
111.5396343
111.5396338
111.5396332
111.5396326
111.539632
111.5396314
111.5396307
111.53963
111.5396293
111.5396287
111.539628
111.5396274
111.5396268
111.5396262
111.5396257
111.5396253
111.539625
111.5396247
111.5396246
111.5396245
111.5396246
111.5396248
111.5396248
111.5396273
111.5396182
111.5396561
111.5395532
111.5397052
111.5379779
111.5380108
111.5380349
111.5396263
111.5396262
111.5396261
111.5396259
111.5396257
111.5396254
111.5396251
111.5396247
111.5396243
111.5396238
111.5396232
111.5396226
111.539622
111.5396213
111.5396206
111.5396199
111.5396192
111.5396184
111.5396177
111.539617
111.5396163
111.5396156
111.539615
111.5396145
111.539614
111.5396136
111.5396133
111.5396131
111.5396131
111.5396131
111.5396134
111.5396134
111.5396165
111.5396052
111.539651
111.539528
111.5397223
111.5379577
111.5380113
111.5380359
111.5396159
111.5396159
111.5396158
111.5396156
111.5396154
111.5396151
111.5396147
111.5396143
111.5396138
111.5396133
111.5396127
111.5396121
111.5396114
111.5396107
111.5396099
111.5396091
111.5396083
111.5396075
111.5396067
111.5396059
111.5396052
111.5396044
111.5396038
111.5396032
111.5396026
111.5396022
111.5396018
111.5396016
111.5396015
111.5396016
111.539602
111.5396018
111.5396058
111.5395916
111.5396467
111.5395031
111.5397346
111.5379405
111.5380107
111.5380369
111.5396057
111.5396056
111.5396055
111.5396053
111.5396051
111.5396048
111.5396044
111.5396039
111.5396034
111.5396029
111.5396022
111.5396016
111.5396008
111.5396001
111.5395993
111.5395984
111.5395975
111.5395967
111.5395958
111.5395949
111.5395941
111.5395933
111.5395925
111.5395918
111.5395912
111.5395907
111.5395903
111.5395901
111.5395899
111.53959
111.5395904
111.53959
111.5395953
111.5395772
111.539643
111.5394795
111.5397402
111.5379312
111.5380082
111.5380375
111.5395955
111.5395954
111.5395953
111.5395951
111.5395948
111.5395945
111.5395941
111.5395936
111.5395931
111.5395925
111.5395918
111.5395911
111.5395903
111.5395895
111.5395886
111.5395877
111.5395868
111.5395858
111.5395849
111.5395839
111.539583
111.5395821
111.5395813
111.5395805
111.5395798
111.5395792
111.5395788
111.5395784
111.5395783
111.5395782
111.5395787
111.5395779
111.539585
111.5395619
111.5396396
111.5394589
111.5397356
111.5378996
111.538004
111.5380371
111.5395853
111.5395853
111.5395851
111.5395849
111.5395847
111.5395843
111.5395839
111.5395834
111.5395828
111.5395822
111.5395815
111.5395807
111.5395799
111.539579
111.5395781
111.5395771
111.5395761
111.539575
111.539574
111.5395729
111.5395719
111.5395709
111.53957
111.5395691
111.5395683
111.5395677
111.5395671
111.5395667
111.5395665
111.5395663
111.539567
111.5395652
111.5395753
111.5395451
111.5396358
111.5394436
111.5397176
111.537886
111.5379966
111.5380349
111.5395752
111.5395752
111.539575
111.5395748
111.5395745
111.5395742
111.5395737
111.5395732
111.5395726
111.539572
111.5395712
111.5395704
111.5395695
111.5395686
111.5395675
111.5395665
111.5395654
111.5395642
111.5395631
111.539562
111.5395608
111.5395597
111.5395587
111.5395577
111.5395569
111.5395561
111.5395555
111.539555
111.5395547
111.5395543
111.5395554
111.5395515
111.5395669
111.539526
111.539632
111.539433
111.5396871
111.5378345
111.5379868
111.5380305
111.5395652
111.5395651
111.539565
111.5395648
111.5395645
111.5395641
111.5395637
111.5395631
111.5395625
111.5395618
111.539561
111.5395601
111.5395592
111.5395582
111.5395571
111.5395559
111.5395547
111.5395535
111.5395523
111.539551
111.5395498
111.5395486
111.5395474
111.5395464
111.5395454
111.5395446
111.5395439
111.5395434
111.539543
111.5395423
111.5395443
111.5395363
111.539563
111.5395069
111.5396269
111.5394346
111.5396422
111.5379715
111.537969
111.5380244
111.5395552
111.5395552
111.539555
111.5395548
111.5395545
111.5395541
111.5395536
111.5395531
111.5395524
111.5395517
111.5395509
111.53955
111.5395489
111.5395479
111.5395467
111.5395455
111.5395442
111.5395428
111.5395415
111.5395401
111.5395388
111.5395376
111.5395364
111.5395353
111.5395343
111.5395334
111.5395326
111.5395319
111.5395312
111.5395303
111.5395333
111.5395226
111.539574
111.539491
111.5396235
111.5394558
111.5395951
111.5379333
111.5379625
111.5380178
111.5395454
111.5395453
111.5395451
111.5395449
111.5395446
111.5395442
111.5395437
111.5395431
111.5395425
111.5395417
111.5395408
111.5395398
111.5395388
111.5395376
111.5395364
111.539535
111.5395337
111.5395323
111.5395309
111.5395295
111.5395282
111.5395269
111.5395256
111.5395242
111.5395227
111.5395212
111.5395194
111.5395174
111.5395153
111.5395142
111.5395205
111.5395052
111.5393839
111.5392534
111.5395029
111.5395428
111.5395298
111.5378958
111.5379278
111.5380104
111.5395355
111.5395355
111.5395353
111.5395351
111.5395347
111.5395343
111.5395338
111.5395333
111.5395326
111.5395317
111.5395308
111.5395298
111.5395287
111.5395274
111.5395261
111.5395247
111.5395234
111.539522
111.5395207
111.5395193
111.5395176
111.5395153
111.5395123
111.5395082
111.5395031
111.5394967
111.5394892
111.539482
111.539476
111.5394747
111.5394368
111.5373362
111.532694
111.5364232
111.5364554
111.5387423
111.5396773
111.5376466
111.5379108
111.5380024
111.5395258
111.5395257
111.5395255
111.5395253
111.539525
111.5395246
111.5395241
111.5395234
111.5395227
111.5395219
111.5395209
111.5395199
111.5395187
111.5395174
111.5395162
111.5395149
111.5395137
111.5395122
111.5395102
111.5395068
111.5395012
111.5394925
111.5394804
111.5394643
111.5394425
111.5394141
111.5393896
111.5393738
111.5393637
111.5392852
111.5328211
111.5319509
111.5366928
111.5381441
111.5383006
111.5390817
111.5395948
111.5375696
111.5378834
111.5379934
111.539516
111.539516
111.5395158
111.5395156
111.5395153
111.5395149
111.5395143
111.5395137
111.539513
111.5395121
111.5395112
111.5395101
111.5395091
111.539508
111.539507
111.5395057
111.5395034
111.5394989
111.5394902
111.5394754
111.5394528
111.5394217
111.5393746
111.5392513
111.5390101
111.5388491
111.538995
111.5390931
111.5390031
111.5297136
111.5319449
111.5362069
111.5389923
111.5390136
111.539186
111.5397215
111.540438
111.5378757
111.5378466
111.5379831
111.5395064
111.5395063
111.5395062
111.5395059
111.5395056
111.5395052
111.5395047
111.5395041
111.5395035
111.5395027
111.5395019
111.5395012
111.5395004
111.5394993
111.539497
111.5394915
111.5394799
111.5394582
111.5394208
111.5393588
111.5392569
111.5389799
111.5377297
111.5352165
111.5345978
111.5365014
111.5382404
111.5384404
111.5268549
111.5317779
111.5368887
111.5391454
111.5396499
111.5393625
111.5390744
111.538887
111.540156
111.5381542
111.5378022
111.5379716
111.5394968
111.5394968
111.5394966
111.5394965
111.5394962
111.5394959
111.5394956
111.5394952
111.5394948
111.5394945
111.539494
111.5394931
111.5394907
111.5394843
111.5394688
111.5394329
111.5393452
111.5391243
111.5386154
111.5376552
111.5355936
111.5304379
111.5301693
111.5335551
111.535823
111.5381914
111.537647
111.5298154
111.5319771
111.5369438
111.5388653
111.5403495
111.5393741
111.5386648
111.5385217
111.5396314
111.5405273
111.5385356
111.5377817
111.5379593
111.5394883
111.5394882
111.5394882
111.5394882
111.5394882
111.5394882
111.5394882
111.5394882
111.5394878
111.5394867
111.5394832
111.5394737
111.539444
111.5393241
111.5388673
111.5375883
111.5351447
111.5320174
111.5301113
111.5307887
111.5307951
111.5318423
111.534539
111.5364454
111.5380347
111.5382199
111.5363542
111.5332664
111.5368285
111.5389111
111.5397829
111.5402115
111.5389512
111.5383818
111.5384317
111.5387695
111.5402382
111.5385679
111.5377906
111.5379472
111.539483
111.539483
111.539483
111.5394829
111.5394826
111.5394818
111.5394798
111.5394748
111.5394601
111.5394082
111.5392052
111.5384063
111.5358134
111.530531
111.5276194
111.5294736
111.531081
111.532331
111.5332129
111.5335177
111.5339069
111.5354287
111.5370361
111.537757
111.5383346
111.5379016
111.5360788
111.5367223
111.5381645
111.5388628
111.5390208
111.5392794
111.5391065
111.538606
111.5382932
111.5385903
111.5393063
111.5381155
111.5378164
111.5379353
111.5393721
111.539357
111.5393054
111.539213
111.5390591
111.5387842
111.5382288
111.5370142
111.5343526
111.5298298
111.5272314
111.5282586
111.5295409
111.5310419
111.5326029
111.5338948
111.5347874
111.5353206
111.5355487
111.5357033
111.5363246
111.5372714
111.5379129
111.5381907
111.538319
111.5381323
111.5372847
111.5377637
111.538172
111.5381766
111.5381449
111.5382694
111.5388605
111.5386202
111.538342
111.5381211
111.5382345
111.5377436
111.5378471
111.5379243
111.5180571
111.5195483
111.522172
111.5249867
111.5273785
111.5290544
111.5300641
111.530669
111.5311633
111.5317667
111.5325418
111.533406
111.534327
111.5352968
111.5361436
111.536694
111.5369475
111.5370232
111.537074
111.5372395
111.5375928
111.5379841
111.5382606
111.5383817
111.5384815
111.5384188
111.5378621
111.5378268
111.5378342
111.5377061
111.5377732
111.5379968
111.5381471
111.5384102
111.538212
111.5378868
111.5377327
111.5376738
111.5378712
111.5379151
111.52665
111.5276784
111.529472
111.5313521
111.532918
111.5340037
111.5346494
111.5350326
111.5353641
111.5357713
111.5362599
111.5367622
111.5372387
111.5376553
111.537902
111.538017
111.5379698
111.5379685
111.5380182
111.5380668
111.5381258
111.5382214
111.5383392
111.5384229
111.5385659
111.5384316
111.5382923
111.5376724
111.5376894
111.5375379
111.5375833
111.537711
111.5378037
111.5382572
111.538162
111.5379996
111.5378232
111.5377918
111.537884
111.5379107
111.5319459
111.5326308
111.533775
111.5349973
111.536056
111.536842
111.5373123
111.5375832
111.5377994
111.5379979
111.5381998
111.5383917
111.5384427
111.5383791
111.5383105
111.538277
111.5382349
111.5383046
111.5383344
111.5383175
111.53822
111.5381537
111.53821
111.5382451
111.5384092
111.5383848
111.538356
111.538251
111.5376164
111.5376483
111.5375607
111.5375781
111.5377559
111.5379447
111.5381146
111.5380675
111.5379837
111.5379125
111.537886
111.5379166
111.5355947
111.5361186
111.5369642
111.5378269
111.5385431
111.5389938
111.539145
111.5391044
111.5389846
111.5388493
111.5387157
111.538572
111.5384772
111.5383303
111.5382736
111.5382523
111.538234
111.5382349
111.5382287
111.5382047
111.5380448
111.5378943
111.5378237
111.5378564
111.5379459
111.5384113
111.5383762
111.5383554
111.5382318
111.5380857
111.5375584
111.5376865
111.5377252
111.5378667
111.5378869
111.5380446
111.5380601
111.5380246
111.5379289
111.5379478
111.5394052
111.5396984
111.5401402
111.540048
111.5397865
111.539514
111.5392666
111.5390639
111.5389526
111.5388089
111.5386105
111.5384833
111.538381
111.5383042
111.5382708
111.5382264
111.5381743
111.5381433
111.5381277
111.5381015
111.5380644
111.5378607
111.5377081
111.5375014
111.5375742
111.537908
111.5382273
111.5384965
111.5383176
111.5381579
111.5379725
111.5378132
111.5377023
111.5376703
111.5374716
111.5376211
111.5380665
111.5381375
111.5381146
111.538015
111.540237
111.5403024
111.5404601
111.5404811
111.5402361
111.5397832
111.5393891
111.5391289
111.5389549
111.5388045
111.5386804
111.5386089
111.5385424