/*--------------------------------*- C++ -*----------------------------------*\
| =========                 |                                                 |
| \\      /  F ield         | OpenFOAM: The Open Source CFD Toolbox           |
|  \\    /   O peration     | Version:  v1912                                 |
|   \\  /    A nd           | Website:  www.openfoam.com                      |
|    \\/     M anipulation  |                                                 |
\*---------------------------------------------------------------------------*/
FoamFile
{
    version     2.0;
    format      ascii;
    class       volVectorField;
    location    "0.7";
    object      U.gas_0;
}
// * * * * * * * * * * * * * * * * * * * * * * * * * * * * * * * * * * * * * //

dimensions      [0 1 -1 0 0 0 0];


internalField   nonuniform List<vector> 
4800
(
(0.0004531661008 4.1695739e-19 0.01226796246)
(0.0007829707226 4.923778582e-19 0.01226386649)
(0.001232675661 -1.600347685e-17 0.01226367628)
(0.001698341782 -1.839967253e-18 0.01226436957)
(0.002167326063 6.399121826e-19 0.01226554018)
(0.002635663254 5.303513161e-19 0.01226710844)
(0.003101366407 4.182358951e-19 0.01226904305)
(0.003563110675 1.283971883e-18 0.01227133225)
(0.004019840505 -1.307269193e-17 0.01227396999)
(0.004470628956 -6.09332494e-18 0.01227695223)
(0.004914619553 1.147218395e-17 0.01228027505)
(0.005351001983 1.919792876e-17 0.01228393294)
(0.005779004271 8.097749542e-18 0.01228791774)
(0.006197893612 1.303393902e-18 0.01229221771)
(0.006606982561 2.029025047e-20 0.01229681666)
(0.007005638969 2.651201936e-19 0.0123016932)
(0.007393298864 4.307407872e-19 0.01230681998)
(0.00776948182 4.638038623e-19 0.0123121629)
(0.008133808531 4.542454414e-19 0.01231768043)
(0.008486020462 4.318333282e-19 0.01232332285)
(0.008826001504 4.36830823e-19 0.01232903151)
(0.009153801733 4.441643821e-19 0.01233473805)
(0.009469663506 4.442253579e-19 0.0123403634)
(0.009774050513 4.293941052e-19 0.01234581656)
(0.01006768111 4.542261761e-19 0.01235099272)
(0.01035156596 4.454105462e-19 0.01235577189)
(0.01062705327 4.436203187e-19 0.01236001471)
(0.01089588815 4.805878534e-19 0.01236355668)
(0.01116029264 4.870536116e-19 0.01236619863)
(0.01142307997 4.791856618e-19 0.01236769202)
(0.01168783928 4.593834329e-19 0.01236770599)
(0.01195922964 4.424079456e-19 0.01236578069)
(0.01224358729 2.678701124e-19 0.01236115702)
(0.01254935188 1.400289897e-18 0.01235303966)
(0.0128936264 -3.91694485e-18 0.01233629444)
(0.01327495373 -5.188441767e-18 0.01232768883)
(0.01384563783 -4.655788078e-18 0.01220975903)
(0.01387651937 -3.189043772e-18 0.01267661532)
(0.01803887522 -1.510966085e-18 0.008939529651)
(0.01106479651 4.667754718e-21 0.01991159523)
(0.0004810881877 4.403544818e-19 0.02333793581)
(0.0008251737859 5.15288044e-19 0.02332956202)
(0.001294730377 -1.685862195e-17 0.02332933139)
(0.001781664236 -2.058778489e-18 0.02333146005)
(0.002272545846 6.717537839e-19 0.023334969)
(0.002763145401 5.703869242e-19 0.02333964243)
(0.003251384073 4.437476725e-19 0.02334539748)
(0.003735897939 1.363597541e-18 0.02335220549)
(0.004215619249 -1.361288304e-17 0.02336004704)
(0.004689623803 -6.655318757e-18 0.02336891217)
(0.005157061846 1.176131597e-17 0.02337879042)
(0.005617131845 2.020442775e-17 0.02338966627)
(0.006069071501 8.892015596e-18 0.023401516)
(0.006512157858 1.550500522e-18 0.02341430504)
(0.006945713124 1.815287041e-20 0.02342798541)
(0.007369114511 2.565615613e-19 0.0234424934)
(0.007781807206 4.526269339e-19 0.02345774719)
(0.008183319963 4.767981355e-19 0.02347364464)
(0.00857328303 4.670186687e-19 0.02349006104)
(0.008951448239 4.525782031e-19 0.02350684696)
(0.00931771117 4.69863141e-19 0.02352382594)
(0.00967213548 4.710776433e-19 0.02354079207)
(0.01001497961 4.794394283e-19 0.02355750712)
(0.01034672641 4.713286725e-19 0.02357369682)
(0.01066811679 4.68640314e-19 0.02358904538)
(0.01098018739 5.021448433e-19 0.02360319144)
(0.0112843159 5.166479674e-19 0.0236157155)
(0.01158227896 4.864819274e-19 0.0236261235)
(0.01187632443 4.708838002e-19 0.02363382176)
(0.01216926051 4.596348556e-19 0.02363808179)
(0.01246462549 4.790633458e-19 0.02363792557)
(0.01276695883 4.707415104e-19 0.02363200675)
(0.01308218084 2.24196885e-19 0.02361821654)
(0.01341793599 1.448181328e-18 0.02359427872)
(0.01378614482 -3.755191629e-18 0.02354764029)
(0.01419012561 -5.20997037e-18 0.02351941869)
(0.01478522128 -5.15353049e-18 0.02316560863)
(0.01506265944 -3.635677994e-18 0.02441456059)
(0.01637284582 -1.565514819e-18 0.01564767581)
(0.00876004995 6.07583194e-20 0.04555913832)
(0.000482956832 4.041093457e-19 0.02184987048)
(0.0008279367652 5.195268663e-19 0.02184147716)
(0.001298442403 -1.686625242e-17 0.02184177601)
(0.001786235277 -2.062368113e-18 0.02184543475)
(0.002278039767 6.769223241e-19 0.02185128497)
(0.002769631459 5.659967593e-19 0.02185902668)
(0.003258918989 4.445630257e-19 0.02186854572)
(0.003744534021 1.36727e-18 0.02187979973)
(0.004225403843 -1.36142731e-17 0.02189276225)
(0.004700592681 -6.663020691e-18 0.02190741961)
(0.00516924116 1.176901306e-17 0.02192375652)
(0.00563053837 2.021978677e-17 0.02194174894)
(0.006083711912 8.912215366e-18 0.02196135904)
(0.006528027609 1.527195706e-18 0.02198253076)
(0.006962795136 2.280834425e-20 0.02200518559)
(0.007387377743 2.568479247e-19 0.02202921856)
(0.007801205148 4.623052124e-19 0.02205449439)
(0.008203789099 4.654150259e-19 0.02208084368)
(0.008594741249 4.584928663e-19 0.02210805919)
(0.008973793164 4.693127891e-19 0.02213589217)
(0.009340818346 5.005079347e-19 0.02216404863)
(0.009695856241 4.823794485e-19 0.02219218526)
(0.01003913835 4.728725162e-19 0.02221990487)
(0.01037111673 4.564081331e-19 0.02224675035)
(0.0106924957 4.73825396e-19 0.02227219624)
(0.01100426697 4.93658845e-19 0.02229564195)
(0.01130774966 4.822074309e-19 0.02231639282)
(0.01160463837 4.846507688e-19 0.02233363523)
(0.01189706315 4.790583616e-19 0.02234640037)
(0.01218765703 4.50335076e-19 0.02235352213)
(0.01247965025 4.20653722e-19 0.0223534581)
(0.01277702488 3.760315413e-19 0.02234411747)
(0.01308468646 2.759814633e-19 0.02232242388)
(0.01340869071 1.420057937e-18 0.02228493094)
(0.01375726479 -3.68587604e-18 0.02221574114)
(0.01413231381 -5.24772704e-18 0.02216861775)
(0.01460005488 -5.120839496e-18 0.02164250575)
(0.01486628769 -3.678587235e-18 0.02336506351)
(0.01497405981 -1.268198087e-18 0.01289253803)
(0.007445718703 1.752684827e-19 0.05705936985)
(0.0004845096743 4.086558766e-19 0.02121472393)
(0.0008305442579 5.07553314e-19 0.02120673186)
(0.001302325715 -1.68658124e-17 0.02120790479)
(0.001791318546 -2.059627435e-18 0.02121318495)
(0.00228432122 6.724107206e-19 0.02122139534)
(0.002777136074 5.661427672e-19 0.02123220079)
(0.003267677043 4.45774354e-19 0.02124547171)
(0.003754571624 1.365587003e-18 0.02126115426)
(0.004236739647 -1.361732282e-17 0.02127922286)
(0.004713237349 -6.657009796e-18 0.02129966219)
(0.005183194443 1.178947497e-17 0.02132245383)
(0.005645786704 2.024905547e-17 0.02134756705)
(0.006100225946 8.901381339e-18 0.0213749518)
(0.006545759601 1.53347041e-18 0.02140453239)
(0.006981676225 2.063970026e-20 0.02143620166)
(0.007407315157 2.639280072e-19 0.02146981536)
(0.007822079402 4.511635741e-19 0.02150518661)
(0.008225451156 4.679954037e-19 0.02154208067)
(0.008617009657 4.71678947e-19 0.02158020969)
(0.008996451104 4.762121536e-19 0.02161922763)
(0.009363610474 5.080539615e-19 0.02165872512)
(0.009718485091 4.800752465e-19 0.021698224)
(0.0100612599 4.934326545e-19 0.02173717129)
(0.01039233431 4.851557415e-19 0.02177493155)
(0.01071235128 4.807797018e-19 0.02181077608)
(0.01102222919 4.907940721e-19 0.02184387378)
(0.01132319443 4.841278258e-19 0.02187327033)
(0.01161681667 4.930279723e-19 0.02189785728)
(0.01190504932 4.659713226e-19 0.02191632949)
(0.01219028079 4.414692956e-19 0.02192713471)
(0.0124753451 4.209626462e-19 0.0219283146)
(0.01276353267 3.91100349e-19 0.02191727146)
(0.01305859011 1.813505225e-19 0.02189037858)
(0.01336456974 1.454981144e-18 0.02184361484)
(0.01368515898 -3.7524168e-18 0.02176030981)
(0.01401994406 -5.361569636e-18 0.02170174206)
(0.01436723266 -5.169383852e-18 0.02111745782)
(0.01459730339 -3.544621364e-18 0.02303884249)
(0.01426279393 -1.087445633e-18 0.01208489257)
(0.006854195755 2.761637152e-19 0.06819675581)
(0.0004863484802 4.100676938e-19 0.02052646935)
(0.0008336801844 5.215186653e-19 0.02051900579)
(0.001307141731 -1.687089951e-17 0.02052122783)
(0.001797800402 -2.061304629e-18 0.02052820607)
(0.002292470299 6.765438338e-19 0.02053879951)
(0.002786972235 5.68391996e-19 0.0205526691)
(0.003279226785 4.458282269e-19 0.02056968211)
(0.003767860034 1.365672696e-18 0.02058978308)
(0.004251785631 -1.362836613e-17 0.02061294947)
(0.004730050511 -6.654984509e-18 0.02063916828)
(0.005201771369 1.179214074e-17 0.02066842113)
(0.005666107291 2.026131115e-17 0.02070067355)
(0.006122249726 8.895396355e-18 0.02073586614)
(0.006569421949 1.518495884e-18 0.02077390653)
(0.007006884496 2.316619651e-20 0.02081466186)
(0.007433944789 2.632601885e-19 0.02085795144)
(0.007849969999 4.548526456e-19 0.02090353976)
(0.00825440259 4.795690539e-19 0.02095112958)
(0.008646778153 4.729643115e-19 0.02100035538)
(0.009026745256 4.71544109e-19 0.02105077682)
(0.009394087011 4.820635454e-19 0.02110187236)
(0.009748744151 4.73239555e-19 0.02115303263)
(0.01009083936 4.855813235e-19 0.02120355333)
(0.0104207024 4.872370347e-19 0.02125262673)
(0.01073889578 4.773369341e-19 0.02129932964)
(0.01104624294 4.819852167e-19 0.0213426116)
(0.01134385357 4.774376568e-19 0.02138127778)
(0.0116331456 4.897514558e-19 0.02141395464)
(0.0119158659 4.570502392e-19 0.02143904807)
(0.01219410781 4.167433643e-19 0.02145468612)
(0.01247029515 3.725205331e-19 0.02145861733)
(0.01274707143 4.229553054e-19 0.02144799035)
(0.01302711178 1.993726948e-19 0.02141901058)
(0.0133127981 1.446304081e-18 0.0213677273)
(0.01360445885 -3.850704722e-18 0.02127895534)
(0.01390225869 -5.462307313e-18 0.02121545093)
(0.01416913517 -5.187757228e-18 0.02065132873)
(0.0142591677 -3.365875846e-18 0.02259571321)
(0.01355929449 -9.654818453e-19 0.01175619706)
(0.006368985607 3.560133118e-19 0.07871347238)
(0.0004885086161 4.078198686e-19 0.01983835199)
(0.0008373962335 5.160103369e-19 0.01983149902)
(0.001312928001 -1.687558656e-17 0.01983486284)
(0.001805689099 -2.050535282e-18 0.01984358837)
(0.002302476966 6.703913846e-19 0.01985657909)
(0.002799120666 5.655330215e-19 0.01987350837)
(0.003293545789 4.471895036e-19 0.01989425026)
(0.003784377476 1.36393623e-18 0.01991875534)
(0.004270523268 -1.365075176e-17 0.01994700833)
(0.004751019491 -6.641999901e-18 0.01997900276)
(0.005224967537 1.180771763e-17 0.0200147243)
(0.005691506408 2.024627853e-17 0.02005413858)
(0.006149802617 8.867330601e-18 0.0200971807)
(0.006599049561 1.517268638e-18 0.02014374542)
(0.007038472882 2.110610069e-20 0.02019367801)
(0.007467340087 2.619790574e-19 0.0202467652)
(0.007884973428 4.495383715e-19 0.02030272661)
(0.0082907655 4.700243603e-19 0.02036120632)
(0.008684197113 4.786351732e-19 0.02042176487)
(0.009064857098 4.735352051e-19 0.02048387144)
(0.009432463707 4.896365646e-19 0.02054689637)
(0.009786887242 4.812276735e-19 0.0206101036)
(0.01012817347 4.89812655e-19 0.02067264281)
(0.01045656725 4.791115131e-19 0.02073354083)
(0.01077253466 4.700490245e-19 0.02079169013)
(0.01107678753 4.716633635e-19 0.02084583317)
(0.01137030285 4.6753436e-19 0.02089455423)
(0.01165433346 4.884150416e-19 0.02093624444)
(0.01193041205 4.305214932e-19 0.02096906643)
(0.01220033958 3.948321783e-19 0.02099090373)
(0.01246615053 4.001879897e-19 0.02099929093)
(0.0127299854 4.297117972e-19 0.02099129323)
(0.01299382061 1.858360914e-19 0.02096322112)
(0.01325916045 1.439726094e-18 0.02091148831)
(0.01352488494 -3.86637791e-18 0.02082365522)
(0.01379419673 -5.516495424e-18 0.0207572164)
(0.01401761896 -5.210018073e-18 0.02025166057)
(0.01424285267 -3.276921224e-18 0.02210804309)
(0.01339577148 -8.028235031e-19 0.01181440728)
(0.006140573974 4.113068263e-19 0.08880657376)
(0.0004910187045 4.109459181e-19 0.01914669316)
(0.0008417281192 5.250563105e-19 0.01914050356)
(0.001319713663 -1.687870284e-17 0.0191450581)
(0.001814997962 -2.039368021e-18 0.01915555646)
(0.002314342149 6.732794308e-19 0.019170947)
(0.00281357542 5.654649986e-19 0.0191909236)
(0.003310625943 4.45148777e-19 0.01921537466)
(0.003804117325 1.359459313e-18 0.01924426324)
(0.004292950423 -1.366554699e-17 0.01927758628)
(0.004776149538 -6.633356058e-18 0.01931534867)
(0.005252798398 1.187656354e-17 0.0193575449)
(0.005722012502 2.026840418e-17 0.01940414541)
(0.00618292887 8.854985733e-18 0.01945508449)
(0.006634705305 1.497842195e-18 0.01951024887)
(0.007076525697 1.923974384e-20 0.01956946666)
(0.007507609635 2.635992724e-19 0.0196324968)
(0.007927225369 4.566293801e-19 0.01969901874)
(0.008334705505 4.756387528e-19 0.01976862248)
(0.008729465002 4.817669781e-19 0.01984079919)
(0.009111021056 4.755734902e-19 0.01991493219)
(0.009479014438 4.811710135e-19 0.01999028838)
(0.009833231839 4.701352032e-19 0.02006601007)
(0.01017362862 4.652540184e-19 0.02014110679)
(0.01050035123 4.797510029e-19 0.02021444692)
(0.01081375711 4.660932627e-19 0.02028474847)
(0.01111443434 4.768447713e-19 0.02035055992)
(0.01140321811 4.732762323e-19 0.0204102611)
(0.01168119438 4.766303221e-19 0.02046203405)
(0.01194969141 4.265525818e-19 0.02050383536)
(0.01221025379 4.068750266e-19 0.02053336154)
(0.01246458646 4.006072702e-19 0.02054800096)
(0.01271446367 4.060710999e-19 0.0205447804)
(0.01296149111 1.589915452e-19 0.02052021621)
(0.01320692519 1.481987174e-18 0.02047104507)
(0.01344993168 -3.936831515e-18 0.02038763851)
(0.01369735425 -5.641169661e-18 0.02031696638)
(0.01389951199 -5.207953591e-18 0.01988143971)
(0.01409468237 -3.236839188e-18 0.02150102964)
(0.01288496138 -7.091470584e-19 0.01219109798)
(0.005722823009 5.05430274e-19 0.09853451053)
(0.0004938910419 4.086620765e-19 0.01845118101)
(0.0008466909563 5.120055474e-19 0.01844569172)
(0.001327509891 -1.688383495e-17 0.01845146047)
(0.001825728603 -2.039086764e-18 0.01846373814)
(0.002328058759 6.774061014e-19 0.01848151808)
(0.002830324138 5.658089312e-19 0.01850451932)
(0.003330453403 4.469882484e-19 0.01853265053)
(0.003827067815 1.353484607e-18 0.01856589315)
(0.00431906076 -1.367898685e-17 0.01860426171)
(0.00480544309 -6.624930412e-18 0.01864777792)
(0.005285278529 1.191159688e-17 0.01869645056)
(0.005757655692 2.030227066e-17 0.01875026049)
(0.006221677589 8.838420871e-18 0.01880914686)
(0.006676460745 1.482860373e-18 0.01887299402)
(0.007121140433 1.824081408e-20 0.01894161874)
(0.007554880321 2.691765288e-19 0.01901475781)
(0.007976885546 4.570929771e-19 0.01909205609)
(0.008386418611 4.791137599e-19 0.019173055)
(0.008782817604 4.796327765e-19 0.01925718165)
(0.009165516316 4.697954547e-19 0.01934373871)
(0.009534065741 4.880342147e-19 0.01943189491)
(0.00988815639 4.746549124e-19 0.01952067634)
(0.01022764075 4.780920196e-19 0.01960895824)
(0.01055255498 4.795963938e-19 0.01969545732)
(0.01086313831 4.65798035e-19 0.01977872503)
(0.01115984712 4.7347276e-19 0.01985712967)
(0.01144337112 4.700611308e-19 0.01992885744)
(0.01171463478 4.630795481e-19 0.01999190171)
(0.01197478028 4.141172598e-19 0.02004403879)
(0.0122251386 3.644029908e-19 0.02008281141)
(0.01246717427 3.968204592e-19 0.02010550279)
(0.01270239261 3.868569943e-19 0.02010911305)
(0.01293218762 1.823296246e-19 0.02009032246)
(0.01315780785 1.471914693e-18 0.02004601547)
(0.01337907063 -3.966766991e-18 0.01996872724)
(0.01360663659 -5.734453807e-18 0.01989117223)
(0.01378860822 -5.208084333e-18 0.01952840707)
(0.0138537203 -3.095920124e-18 0.02076440997)
(0.01227434886 -5.619518197e-19 0.01295267999)
(0.00529918905 5.313833445e-19 0.107926345)
(0.0004971293276 4.062398039e-19 0.0177512896)
(0.0008522881496 5.113902906e-19 0.01774652801)
(0.001336315908 -1.689277463e-17 0.01775351783)
(0.001837872955 -2.030495199e-18 0.01776756544)
(0.002343611851 6.823951164e-19 0.0177877108)
(0.002849347541 5.673282103e-19 0.01781370161)
(0.003353007908 4.462863959e-19 0.01784547196)
(0.003853211305 1.350023221e-18 0.0178830275)
(0.004348842955 -1.369042333e-17 0.01792640604)
(0.004838898944 -6.596701203e-18 0.01797565223)
(0.00532242077 1.192536885e-17 0.01803079541)
(0.005798466877 2.032049544e-17 0.01809183331)
(0.006266101828 8.82071888e-18 0.0181587166)
(0.00672439522 1.459240866e-18 0.01823133395)
(0.007172426855 1.879818249e-20 0.01830949745)
(0.007609296435 2.785066409e-19 0.01839292842)
(0.00803413683 4.5932426e-19 0.01848124362)
(0.008446130265 4.865746115e-19 0.01857394216)
(0.008844526923 4.722264136e-19 0.0186703932)
(0.009228665478 4.736598704e-19 0.01876982453)
(0.009597995027 4.928395683e-19 0.01887131231)
(0.009952097753 4.789378386e-19 0.01897377195)
(0.01029071155 4.788307822e-19 0.01907595005)
(0.01061375171 4.776613288e-19 0.0191764176)
(0.01092133064 4.654704281e-19 0.01927356533)
(0.01121376902 4.727140655e-19 0.01936559305)
(0.01149161086 4.611095125e-19 0.01945050046)
(0.01175562674 4.515686222e-19 0.0195261044)
(0.01200679463 4.112574635e-19 0.0195900156)
(0.01224627249 3.813695966e-19 0.01963963656)
(0.01247535202 3.679649717e-19 0.01967215373)
(0.01269537277 4.259257828e-19 0.01968455087)
(0.0129075848 2.043505808e-19 0.01967361225)
(0.01311318611 1.544132834e-18 0.01963622638)
(0.01331196287 -4.0576989e-18 0.0195667625)
(0.01351535791 -5.85052104e-18 0.01948133592)
(0.01366978987 -5.225306991e-18 0.01919528449)
(0.01362750801 -2.8699932e-18 0.01998633436)
(0.01179677884 -4.441460299e-19 0.01405859524)
(0.004985795146 5.621175075e-19 0.1170052228)
(0.0005007315755 3.998686365e-19 0.0170465037)
(0.0008585149135 4.991890709e-19 0.01704249088)
(0.001346121361 -1.690263623e-17 0.01705069616)
(0.001851413615 -2.009919503e-18 0.01706649017)
(0.002360977645 6.877899352e-19 0.01708896262)
(0.002870617791 5.682246187e-19 0.01711789345)
(0.003378260818 4.481073471e-19 0.0171532472)
(0.003882522127 1.347852894e-18 0.01719505969)
(0.004382278386 -1.372255189e-17 0.01724339822)
(0.004876509832 -6.577241579e-18 0.01729833713)
(0.005364233706 1.197501751e-17 0.01735993349)
(0.005844475154 2.033635997e-17 0.01742820928)
(0.006316255948 8.792873167e-18 0.01750313427)
(0.006778593163 1.441288564e-18 0.0175846092)
(0.007230504271 2.230266551e-20 0.01767244922)
(0.007671016915 2.861474142e-19 0.01776636779)
(0.008099182439 4.678388768e-19 0.01786596103)
(0.008514092494 4.848487139e-19 0.01797069288)
(0.008914898187 4.750244899e-19 0.01807988127)
(0.009300831284 4.820169464e-19 0.01819268548)
(0.00967122687 4.944548485e-19 0.01830809497)
(0.01002554678 4.797503645e-19 0.01842491994)
(0.01036340295 4.77811809e-19 0.01854178349)
(0.01068457975 4.66406389e-19 0.01865711586)
(0.01098905447 4.585795591e-19 0.01876915135)
(0.01127701098 4.660503868e-19 0.01887592656)
(0.01154884815 4.473521173e-19 0.01897526374)
(0.01180518914 4.405431087e-19 0.01906480376)
(0.01204686967 4.079926594e-19 0.01914199712)
(0.01227491059 3.842191058e-19 0.0192041052)
(0.01249047697 3.763543176e-19 0.01924821308)
(0.01269480332 4.288780839e-19 0.01927127451)
(0.01288908802 2.294624424e-19 0.019270141)
(0.01307448675 1.543978595e-18 0.0192416691)
(0.01325048424 -4.105169002e-18 0.01918225135)
(0.01342795711 -5.913025972e-18 0.01909088198)
(0.01354749643 -5.199809078e-18 0.01888875213)
(0.01338196524 -2.759362663e-18 0.01922284602)
(0.01134256991 -3.415990906e-19 0.0153763852)
(0.004709221551 5.531743287e-19 0.1258052435)
(0.0005046915298 3.845688154e-19 0.01633631302)
(0.0008653599399 4.897998309e-19 0.01633306526)
(0.001356907401 -1.691069651e-17 0.01634246976)
(0.001866323753 -1.997862811e-18 0.01635997288)
(0.002380122478 6.840043885e-19 0.0163847186)
(0.002894096827 5.665200546e-19 0.01641652321)
(0.003406173035 4.50533307e-19 0.01645538679)
(0.003914964247 1.343109608e-18 0.01650138186)
(0.004419338611 -1.375460136e-17 0.01655461199)
(0.004918259727 -6.546450341e-18 0.01661518877)
(0.005410718845 1.205458681e-17 0.01668320494)
(0.005895704885 2.034580536e-17 0.01675871519)
(0.006372192627 8.76089403e-18 0.01684171703)
(0.006839141084 1.419437606e-18 0.01693213205)
(0.007295498509 2.629984442e-20 0.01702978729)
(0.007740212309 2.895015567e-19 0.01713439704)
(0.008172242893 4.695459589e-19 0.01724554519)
(0.00859058082 4.775920844e-19 0.01736266852)
(0.008994266706 5.03590447e-19 0.01748504121)
(0.00938241335 4.845095218e-19 0.01761176084)
(0.009754229468 4.806224081e-19 0.01774173633)
(0.01010904433 4.778164002e-19 0.01787367798)
(0.01044633244 4.789308274e-19 0.01800608998)
(0.01076573729 4.247532864e-19 0.01813726552)
(0.01106709337 4.539785875e-19 0.01826528523)
(0.01135044433 4.62645009e-19 0.01838802144)
(0.0116160457 4.360757715e-19 0.01850312923)
(0.01186438014 4.253029024e-19 0.01860806477)
(0.01209615806 4.000095205e-19 0.01870011473)
(0.01231229031 3.998294271e-19 0.01877638984)
(0.01251384875 4.014537442e-19 0.01883386491)
(0.01270200546 4.251129062e-19 0.01886943664)
(0.01287795634 2.500881761e-19 0.01887997182)
(0.01304291773 1.529097708e-18 0.01886229273)
(0.01319670738 -4.112617516e-18 0.01881479522)
(0.01334852974 -6.020808564e-18 0.01872093246)
(0.0134369483 -5.14075849e-18 0.01860995871)
(0.01315608688 -2.67668597e-18 0.01849758713)
(0.01093802456 -2.440067921e-19 0.01683173885)
(0.004469755203 5.624514409e-19 0.1343555432)
(0.0005089992409 4.100806931e-19 0.01562021858)
(0.0008728060012 5.010173419e-19 0.01561774814)
(0.001368646875 -1.692155188e-17 0.01562832545)
(0.001882566524 -1.985936425e-18 0.01564748621)
(0.002401001379 6.894378471e-19 0.01567443423)
(0.002919734371 5.579520933e-19 0.01570902705)
(0.003436692737 4.412292767e-19 0.01575130577)
(0.00395048869 1.329135867e-18 0.0158013866)
(0.004459982478 -1.377998416e-17 0.01585941717)
(0.004964120748 -6.526966786e-18 0.01592555451)
(0.005461867358 1.207155581e-17 0.01599993607)
(0.005952172329 2.036746789e-17 0.01608265866)
(0.006433959403 8.700566765e-18 0.01617375734)
(0.006906124055 1.37620736e-18 0.01627318451)
(0.007367538414 7.460787011e-21 0.01638078906)
(0.007817061321 2.729128577e-19 0.01649629592)
(0.008253552602 4.529027069e-19 0.01661928621)
(0.008675890906 4.635292286e-19 0.01674917849)
(0.009082994545 4.611963311e-19 0.01688521143)
(0.009473844819 4.755808862e-19 0.01702642831)
(0.009847511205 4.853636256e-19 0.01717166384)
(0.01020317768 4.642211294e-19 0.01731953365)
(0.01054016929 4.586267294e-19 0.01746842693)
(0.0108579782 4.607649182e-19 0.0176165022)
(0.01115628799 4.485425265e-19 0.01776168742)
(0.01143499447 4.449774929e-19 0.01790168774)
(0.01169421476 4.134098299e-19 0.01803399142)
(0.01193429711 4.13719297e-19 0.01815586567)
(0.0121558351 3.887642329e-19 0.01826441598)
(0.0123596481 3.603681784e-19 0.01835659218)
(0.01254673845 3.435207737e-19 0.01842924154)
(0.0127182564 3.990470019e-19 0.01847916609)
(0.01287544727 1.956743251e-19 0.01850319309)
(0.01301966086 1.581163864e-18 0.01849805801)
(0.01315118861 -4.204711448e-18 0.01846377143)
(0.01327673569 -6.062890886e-18 0.01837200699)
(0.01333832683 -5.176965114e-18 0.01835267327)
(0.01296140743 -2.555874033e-18 0.01781030963)
(0.0105745747 -1.795006677e-19 0.01840326218)
(0.00424856975 6.108364843e-19 0.1426791764)
(0.0005136411713 4.075475061e-19 0.0148977378)
(0.0008808299601 4.862818619e-19 0.0148960532)
(0.001381303943 -1.693598982e-17 0.01490776645)
(0.001900094082 -1.960533555e-18 0.01492851805)
(0.002423556538 6.875090263e-19 0.01495757822)
(0.002947465835 5.540073953e-19 0.01499485126)
(0.003469752713 4.389363138e-19 0.01504042545)
(0.003989030509 1.320647463e-18 0.01509446838)
(0.004504152846 -1.381489433e-17 0.01515718046)
(0.005014049641 -6.498352829e-18 0.01522877321)
(0.005517656374 1.213619145e-17 0.01530943885)
(0.006013881793 2.03918718e-17 0.01539932693)
(0.006501594743 8.654827986e-18 0.01549852106)
(0.006979621766 1.342329754e-18 0.01560701567)
(0.007446751892 -1.369366889e-22 0.01572469271)
(0.007901746898 2.697082273e-19 0.01585129875)
(0.00834335608 4.477472689e-19 0.01598642276)
(0.008770334906 4.637872996e-19 0.01612947506)
(0.009181467017 4.606322929e-19 0.01627966788)
(0.00957558902 4.695006948e-19 0.0164359982)
(0.009951617496 4.784667706e-19 0.01659723318)
(0.01030857749 4.621588041e-19 0.01676189891)
(0.01064563167 4.557828407e-19 0.01692827284)
(0.01096210929 4.688497259e-19 0.01709438007)
(0.0112575331 4.545456557e-19 0.01725799532)
(0.01153164317 4.426725101e-19 0.01741665335)
(0.01178441775 4.149991029e-19 0.01756766271)
(0.01201607638 4.07320066e-19 0.01770810467)
(0.01222710021 3.850753624e-19 0.01783487753)
(0.01241822529 3.604859418e-19 0.01794475844)
(0.01259040758 3.487273172e-19 0.01803443708)
(0.0127448077 3.961285278e-19 0.01810057676)
(0.01288274539 2.515705202e-19 0.01813991315)
(0.01300572207 1.622848783e-18 0.01814903024)
(0.01311451341 -4.228178379e-18 0.01812913932)
(0.01321475984 -6.138344759e-18 0.01804356359)
(0.013253415 -5.146144849e-18 0.018111556)
(0.01278675633 -2.454673722e-18 0.01714648374)
(0.01024002736 -9.336475702e-20 0.02009244268)
(0.004044201612 5.889670393e-19 0.1507950775)
(0.0005186000331 4.098081523e-19 0.01416840972)
(0.000889402376 4.753040028e-19 0.01416751573)
(0.001394833285 -1.695068518e-17 0.01418031679)
(0.001918846241 -1.940077767e-18 0.01420257546)
(0.002447715398 6.859425776e-19 0.01423363582)
(0.002977209883 5.530337697e-19 0.01427345521)
(0.003505267407 4.401354108e-19 0.01432217595)
(0.004030505423 1.313819092e-18 0.01438002552)
(0.004551772898 -1.385285556e-17 0.01444726679)
(0.00506798383 -6.464283922e-18 0.01452417584)
(0.005578044819 1.224438409e-17 0.0146110109)
(0.00608082132 2.040163376e-17 0.01470798609)
(0.006575123648 8.603763017e-18 0.01481524592)
(0.007059704082 1.316982321e-18 0.01493283938)
(0.007533261518 -8.843100825e-21 0.01506069407)
(0.007994451943 2.732515647e-19 0.01519859059)
(0.008441903786 4.362077213e-19 0.0153461376)
(0.008874237528 4.605341007e-19 0.01550274825)
(0.009290089051 4.312960345e-19 0.01566761845)
(0.009688136185 4.304086168e-19 0.01583970758)
(0.0100671279 4.58751974e-19 0.01601772238)
(0.01042591542 4.554507504e-19 0.01620010451)
(0.01076348472 4.44106958e-19 0.01638502242)
(0.0110789888 4.90444297e-19 0.01657036809)
(0.01137177741 4.683306866e-19 0.01675376157)
(0.01164142592 4.320635271e-19 0.01693256144)
(0.01188776431 4.14699484e-19 0.01710388079)
(0.01211089016 3.753151328e-19 0.01726460634)
(0.01231117364 3.925105734e-19 0.01741141767)
(0.01248927319 3.799612646e-19 0.01754088686)
(0.01264612484 3.893829325e-19 0.0176495118)
(0.0127829149 4.080432401e-19 0.01773377666)
(0.01290105261 3.260764638e-19 0.01779027403)
(0.01300217559 1.594159371e-18 0.01781539932)
(0.01308713773 -4.239854381e-18 0.01781142412)
(0.01316324062 -6.23307937e-18 0.01773332601)
(0.01318362787 -5.124693168e-18 0.01788252769)
(0.01264265954 -2.396670512e-18 0.01649502435)
(0.009938525262 8.322305972e-20 0.02190285488)
(0.003851403451 6.044853355e-19 0.158716543)
(0.0005238544385 4.128022879e-19 0.01343180056)
(0.0008984868569 4.7861772e-19 0.01343169803)
(0.00140917896 -1.695912234e-17 0.01344552631)
(0.001938748786 -1.914864748e-18 0.01346918922)
(0.002473388354 6.895451827e-19 0.01350211297)
(0.00300886558 5.522028733e-19 0.01354431503)
(0.003543129643 4.439591488e-19 0.01359599935)
(0.004074806076 1.314482611e-18 0.01365746266)
(0.004602742004 -1.388936532e-17 0.01372904122)
(0.005125836967 -6.418489766e-18 0.0138110867)
(0.005642968735 1.228724735e-17 0.01390393587)
(0.006152957852 2.043688671e-17 0.01400788066)
(0.006654552715 8.565352604e-18 0.01412314018)
(0.007146426109 1.279446583e-18 0.01424983208)
(0.00762717967 -2.353801232e-21 0.01438794369)
(0.008095354594 2.83894899e-19 0.01453730344)
(0.008549447644 4.554300254e-19 0.01469755298)
(0.008987931853 4.628232457e-19 0.01486812069)
(0.009409281415 4.627391305e-19 0.01504819731)
(0.009812000231 4.73195268e-19 0.0152367143)
(0.0101946536 4.820555021e-19 0.01543232566)
(0.01055590255 4.656102154e-19 0.01563339395)
(0.01089453995 4.661787737e-19 0.01583798114)
(0.0112095264 4.605742628e-19 0.01604384606)
(0.01150002439 4.441872704e-19 0.01624845105)
(0.01176543345 4.32130231e-19 0.01644897014)
(0.01200542398 4.156010864e-19 0.0166423079)
(0.01221996343 4.193875144e-19 0.01682513221)
(0.01240931793 3.914283445e-19 0.01699390103)
(0.01257407888 3.846635641e-19 0.01714493383)
(0.0127151746 3.898175582e-19 0.01727450102)
(0.01283383465 4.536180611e-19 0.01737887181)
(0.01293156209 2.982456119e-19 0.0174544469)
(0.01301020447 1.647188595e-18 0.01749736803)
(0.01307134785 -4.31701677e-18 0.01751073086)
(0.01312264095 -6.292812621e-18 0.01744048844)
(0.01312263361 -5.138341145e-18 0.01766418714)
(0.01250945465 -2.268795623e-18 0.01584830091)
(0.009656088726 5.555046004e-20 0.02383775364)
(0.003670423487 6.039320653e-19 0.1664551226)
(0.0005293784064 4.142522294e-19 0.01268750984)
(0.0009080392076 4.710106748e-19 0.01268819543)
(0.001424273028 -1.69768049e-17 0.0127029764)
(0.001959711484 -1.895402661e-18 0.01272791913)
(0.002500466168 6.896206591e-19 0.01276254113)
(0.003042309271 5.534626534e-19 0.0128069279)
(0.003583206942 4.473301845e-19 0.01286135354)
(0.004121797804 1.306144244e-18 0.01292619403)
(0.004656931044 -1.393571469e-17 0.01300187138)
(0.005187493944 -6.374276375e-18 0.01308882508)
(0.005712336027 1.238241626e-17 0.01318748431)
(0.006230231784 2.045551617e-17 0.0132982335)
(0.006739864614 8.503210695e-18 0.01342138171)
(0.007239822674 1.252170965e-18 0.01355713092)
(0.007728603113 -5.58162074e-21 0.01370554396)
(0.008204623017 2.815989378e-19 0.01386651256)
(0.008666236147 4.502365152e-19 0.01403972619)
(0.009111754858 4.636266284e-19 0.01422464233)
(0.009539476728 4.637866805e-19 0.01442045902)
(0.0099477154 4.329125332e-19 0.01462609052)
(0.01033483507 4.610203763e-19 0.01484014667)
(0.01069928815 4.624447993e-19 0.01506091676)
(0.01103965534 4.494105095e-19 0.01528635911)
(0.01135468527 4.475668578e-19 0.01551409969)
(0.01164333654 4.572706153e-19 0.01574143684)
(0.01190481901 4.360623095e-19 0.01596535084)