/*--------------------------------*- C++ -*----------------------------------*\
| =========                 |                                                 |
| \\      /  F ield         | OpenFOAM: The Open Source CFD Toolbox           |
|  \\    /   O peration     | Version:  v1912                                 |
|   \\  /    A nd           | Website:  www.openfoam.com                      |
|    \\/     M anipulation  |                                                 |
\*---------------------------------------------------------------------------*/
FoamFile
{
    version     2.0;
    format      ascii;
    class       volVectorField;
    location    "0.7";
    object      U.gas;
}
// * * * * * * * * * * * * * * * * * * * * * * * * * * * * * * * * * * * * * //

dimensions      [0 1 -1 0 0 0 0];


internalField   nonuniform List<vector> 
4800
(
(0.0004540918611 4.173214084e-19 0.01226731025)
(0.0007845918981 4.941775241e-19 0.01226319128)
(0.001235241195 -1.602376492e-17 0.01226300111)
(0.001701873616 -1.850624402e-18 0.01226370119)
(0.002171813545 6.406580511e-19 0.01226488248)
(0.002641082458 5.316966664e-19 0.01226646477)
(0.00310768441 4.18694113e-19 0.01226841649)
(0.003570287134 1.288738338e-18 0.01227072571)
(0.00402782838 -1.307755693e-17 0.01227338628)
(0.004479374985 -6.119171549e-18 0.01227639404)
(0.004924064639 1.146260443e-17 0.01227974494)
(0.005361081549 1.922253504e-17 0.01228343335)
(0.005789648625 8.133349152e-18 0.01228745097)
(0.006209028359 1.31669471e-18 0.01229178588)
(0.006618529043 2.008342087e-20 0.0122964217)
(0.007017514775 2.63875101e-19 0.01230133684)
(0.007405418394 4.31039813e-19 0.01230650369)
(0.007781756906 4.64535347e-19 0.01231188792)
(0.008146149128 4.550704708e-19 0.01231744769)
(0.008498335399 4.326874006e-19 0.01232313298)
(0.008838199291 4.37591673e-19 0.01232888482)
(0.009165791428 4.448211452e-19 0.01233463448)
(0.009481355633 4.450753397e-19 0.01234030253)
(0.009785358023 4.30385045e-19 0.01234579757)
(0.01007852041 4.55025016e-19 0.01235101436)
(0.01036185796 4.460670382e-19 0.01235583249)
(0.01063672454 4.442258271e-19 0.01236011215)
(0.01090487196 4.811812965e-19 0.01236368835)
(0.0111685302 4.880625484e-19 0.01236636147)
(0.01143052145 4.794003875e-19 0.01236788253)
(0.01169444491 4.596545075e-19 0.01236792018)
(0.01196497092 4.429801247e-19 0.01236601413)
(0.01224844938 2.679518512e-19 0.0123614039)
(0.01255332972 1.400586221e-18 0.01235329781)
(0.01289675897 -3.91363665e-18 0.01233653527)
(0.01327719942 -5.186178204e-18 0.01232799233)
(0.01384736003 -4.660478696e-18 0.01220977331)
(0.01387775832 -3.199645447e-18 0.01267689741)
(0.01803850467 -1.52431905e-18 0.008940530103)
(0.01106404409 -1.613075157e-21 0.01991115258)
(0.0004821290935 4.409482942e-19 0.02333589793)
(0.0008269626183 5.172380179e-19 0.02332747559)
(0.001297536006 -1.688089994e-17 0.0233272476)
(0.001785513706 -2.070839461e-18 0.02332939734)
(0.002277430415 6.724780497e-19 0.02333293889)
(0.002769041567 5.718842516e-19 0.02333765493)
(0.003258258653 4.443180031e-19 0.02334346186)
(0.003743709835 1.368951726e-18 0.02335033059)
(0.004224320356 -1.361767763e-17 0.02335824134)
(0.004699159574 -6.683892514e-18 0.02336718381)
(0.005167371683 1.174939237e-17 0.02337714718)
(0.005628149466 2.023067002e-17 0.02338811554)
(0.006080725324 8.931950349e-18 0.02340006472)
(0.006524371409 1.566364826e-18 0.02341295965)
(0.006958405495 1.846378416e-20 0.02342675179)
(0.007382200872 2.55272556e-19 0.02344137678)
(0.007795199366 4.529712799e-19 0.02345675209)
(0.008196927007 4.777218981e-19 0.0234727748)
(0.008587012008 4.679076533e-19 0.02348931937)
(0.008965204918 4.533328335e-19 0.02350623541)
(0.009331400848 4.708398122e-19 0.02352334549)
(0.009685663854 4.718424766e-19 0.02354044263)
(0.01002825369 4.803425378e-19 0.02355728749)
(0.01035965548 4.719496304e-19 0.02357360461)
(0.01068061344 4.692086793e-19 0.02358907693)
(0.01099216856 5.027005632e-19 0.0236033418)
(0.01129570397 5.170423212e-19 0.02361597836)
(0.01159300287 4.869981593e-19 0.02362649115)
(0.01188632098 4.716932564e-19 0.02363428501)
(0.01217847517 4.60453133e-19 0.02363863031)
(0.01247301309 4.796817505e-19 0.02363854772)
(0.01277448499 4.710851349e-19 0.02363268926)
(0.01308882366 2.244098359e-19 0.0236189428)
(0.01342368492 1.448199921e-18 0.02359504052)
(0.01379101216 -3.751391314e-18 0.02354836766)
(0.01419407131 -5.206388123e-18 0.02352031774)
(0.01478842772 -5.157461314e-18 0.02316578017)
(0.01506563695 -3.648265158e-18 0.02441541516)
(0.01637497118 -1.57843252e-18 0.01565077849)
(0.00876067867 5.381796139e-20 0.04555842015)
(0.0004840118472 4.041517358e-19 0.02184635551)
(0.0008297456823 5.215789221e-19 0.02183791154)
(0.001301274959 -1.688854115e-17 0.02183821949)
(0.001790118265 -2.074433719e-18 0.02184191457)
(0.002282964829 6.776792057e-19 0.02184781994)
(0.002775575409 5.675480185e-19 0.02185563338)
(0.003265848845 4.451837558e-19 0.02186523966)
(0.003752408862 1.372530658e-18 0.02187659573)
(0.004234175689 -1.361900247e-17 0.02188967455)
(0.004710207008 -6.691691566e-18 0.02190446187)
(0.005179637329 1.175699181e-17 0.02192094183)
(0.005641650002 2.024603075e-17 0.02193908972)
(0.006095467272 8.952375713e-18 0.02195886699)
(0.00654035002 1.542997454e-18 0.02198021673)
(0.006975603434 2.296008139e-20 0.02200305948)
(0.007400586786 2.555787818e-19 0.02202728921)
(0.007814726388 4.627986936e-19 0.02205276946)
(0.008217531207 4.664280113e-19 0.02207932952)
(0.008608610813 4.594982391e-19 0.02210676073)
(0.008987695441 4.701820655e-19 0.02213481282)
(0.009354658071 5.012537616e-19 0.02216319012)
(0.0097095385 4.831571116e-19 0.02219154756)
(0.01005256949 4.736375873e-19 0.02221948609)
(0.01038420534 4.569500674e-19 0.02224654663)
(0.01070515359 4.739333233e-19 0.02227220161)
(0.01101641024 4.943540285e-19 0.02229584824)
(0.0113192998 4.82654732e-19 0.02231678967)
(0.01161552337 4.850184729e-19 0.02233420991)
(0.01190721858 4.796591876e-19 0.0223471377)
(0.01219702745 4.5107269e-19 0.02235440486)
(0.01248818983 4.212818662e-19 0.02235446737)
(0.01278469799 3.76402466e-19 0.02234523153)
(0.01309146923 2.76257971e-19 0.02232361627)
(0.01341457166 1.42037233e-18 0.0222861849)
(0.0137622502 -3.681282367e-18 0.02221696536)
(0.0141363884 -5.243873967e-18 0.02217008583)
(0.01460331734 -5.124790383e-18 0.02164302441)
(0.01486988406 -3.692013451e-18 0.02336668508)
(0.01497779401 -1.281760652e-18 0.01289742564)
(0.0074473119 1.691634236e-19 0.05705900126)
(0.0004855786329 4.094736523e-19 0.02120971175)
(0.0008323760665 5.094966467e-19 0.0212016708)
(0.001305192387 -1.688808827e-17 0.02120286139)
(0.001795246535 -2.071710957e-18 0.02120819377)
(0.002289302089 6.731611946e-19 0.0212164821)
(0.002783146622 5.676913602e-19 0.02122738854)
(0.003274684232 4.463486586e-19 0.02124078217)
(0.003762534395 1.37094005e-18 0.02125660823)
(0.004245609797 -1.3621966e-17 0.02127484034)
(0.004722960059 -6.685997818e-18 0.02129546245)
(0.005193708689 1.17773117e-17 0.02131845529)
(0.005657025632 2.027536345e-17 0.02134378724)
(0.006112117255 8.941629973e-18 0.0213714072)
(0.006558225951 1.54935236e-18 0.02140123833)
(0.006994635691 2.079338677e-20 0.02143317214)
(0.007420681742 2.627736439e-19 0.02146706288)
(0.007835763599 4.51526475e-19 0.02150272204)
(0.008239360584 4.687069664e-19 0.02153991303)
(0.008631049752 4.72682563e-19 0.02157834602)
(0.009010525876 4.771157506e-19 0.02161767283)
(0.009377623322 5.090794519e-19 0.02165748175)
(0.009732339674 4.80944542e-19 0.02169729216)
(0.01007486106 4.944094412e-19 0.02173654844)
(0.01040558904 4.856017713e-19 0.0217746124)
(0.01072516971 4.814510121e-19 0.02181075244)
(0.01103452568 4.910788022e-19 0.02184413433)
(0.01133488863 4.84656317e-19 0.02187380069)
(0.01162783467 4.939503253e-19 0.0218986398)
(0.0119153247 4.662509748e-19 0.02191734314)
(0.01219975605 4.421254998e-19 0.02192835511)
(0.01248397282 4.217129209e-19 0.02192971542)
(0.012771276 3.917581347e-19 0.02191882279)
(0.01306542379 1.817579422e-19 0.02189204447)
(0.0133704817 1.454836682e-18 0.0218453685)
(0.01369015064 -3.748104586e-18 0.02176204625)
(0.01402401364 -5.357799194e-18 0.02170376205)
(0.01437043417 -5.174590319e-18 0.02111842452)
(0.01460212996 -3.55825207e-18 0.02304126552)
(0.01426881602 -1.100146185e-18 0.01209065146)
(0.006856795476 2.69297881e-19 0.06819677357)
(0.0004874341287 4.104129669e-19 0.02051993811)
(0.000835540353 5.235267118e-19 0.02051242868)
(0.001310052068 -1.689312939e-17 0.02051467815)
(0.001801787326 -2.073551652e-18 0.0205217251)
(0.002297525232 6.77311852e-19 0.02053241959)
(0.002793071838 5.6999306e-19 0.0205464197)
(0.003286337836 4.464226729e-19 0.02056359115)
(0.003775941219 1.370978126e-18 0.02058387734)
(0.004260788401 -1.363314529e-17 0.02060725481)
(0.004739919604 -6.684056194e-18 0.02063370959)
(0.005212445211 1.177972359e-17 0.02066322226)
(0.005677518367 2.028765311e-17 0.02069575721)
(0.00613432495 8.936002079e-18 0.02073125371)
(0.006582083072 1.534430019e-18 0.0207696179)
(0.007020048557 2.329616546e-20 0.0208107152)
(0.00744752462 2.621269446e-19 0.02085436303)
(0.007863874796 4.553936109e-19 0.02090032375)
(0.008268538537 4.804058127e-19 0.0209482978)
(0.008661049127 4.738972024e-19 0.02099791707)
(0.009041053579 4.724156798e-19 0.02104873846)
(0.009408334271 4.830603747e-19 0.02110023744)
(0.009762832079 4.742302225e-19 0.02115180145)
(0.01010467075 4.859082815e-19 0.02120272281)
(0.01043418212 4.874919294e-19 0.02125219024)
(0.01075193171 4.778602541e-19 0.02129927683)
(0.01105874708 4.821603157e-19 0.02134292811)
(0.01135574315 4.778492642e-19 0.02138194527)
(0.0116443442 4.90535143e-19 0.02141495059)
(0.01192630454 4.572444714e-19 0.02144034567)
(0.01220372608 4.171896311e-19 0.02145625415)
(0.01247904332 3.732554488e-19 0.02146042109)
(0.0127549114 4.234970831e-19 0.02144999161)
(0.01303401682 1.995795647e-19 0.02142116431)
(0.01331875599 1.446317163e-18 0.02136999492)
(0.01360946959 -3.845692209e-18 0.02128122354)
(0.01390633435 -5.458781405e-18 0.02121801986)
(0.01417222333 -5.193278945e-18 0.0206528656)
(0.01426293593 -3.380681109e-18 0.02259911269)
(0.01356366031 -9.780053607e-19 0.0117628064)
(0.00637086767 3.512983689e-19 0.07871360108)
(0.0004896142702 4.085289104e-19 0.01983027558)
(0.0008392907928 5.180787441e-19 0.01982338021)
(0.001315891949 -1.689783154e-17 0.01982678193)
(0.00180974911 -2.062758484e-18 0.01983559318)
(0.002307624343 6.711861918e-19 0.01984870842)
(0.00280533187 5.671068016e-19 0.01986579805)
(0.003300787329 4.477325598e-19 0.01988673443)
(0.00379260768 1.369327584e-18 0.01991146684)
(0.004279693127 -1.36553875e-17 0.0199399789)
(0.004761073166 -6.671318422e-18 0.01997226302)
(0.005235842749 1.179519042e-17 0.02000830362)
(0.005703134798 2.027264571e-17 0.02004806496)
(0.006162110107 8.908126345e-18 0.0200914805)
(0.006611956753 1.53343938e-18 0.02013844323)
(0.007051895506 2.123889117e-20 0.0201887963)
(0.007481189502 2.60740188e-19 0.02024232416)
(0.00789915719 4.499191741e-19 0.02029874382)
(0.008305187991 4.707220698e-19 0.02035769651)
(0.008698760242 4.795947413e-19 0.02041873961)
(0.009079461063 4.742050147e-19 0.02048133894)
(0.009447007819 4.903889525e-19 0.02054486116)
(0.009801270808 4.81717845e-19 0.0206085663)
(0.01014229673 4.901839321e-19 0.02067159991)
(0.01047033236 4.795041618e-19 0.02073298445)
(0.01078584672 4.701968271e-19 0.02079160789)
(0.0110895556 4.725250756e-19 0.02084620775)
(0.0113824411 4.683766334e-19 0.02089536342)
(0.01166576234 4.890451212e-19 0.02093746093)
(0.01194105945 4.307738903e-19 0.02097065768)
(0.01221014201 3.955775427e-19 0.02099283185)
(0.0124750545 4.00842878e-19 0.02100151274)
(0.01273794966 4.305897937e-19 0.02099376128)
(0.01300081704 1.860985427e-19 0.02096588111)
(0.01326517672 1.439383141e-18 0.02091428828)
(0.0135299238 -3.861406292e-18 0.020826474)
(0.01379831656 -5.513132935e-18 0.02076031316)
(0.01402086278 -5.216294382e-18 0.02025379289)
(0.01425185482 -3.291387088e-18 0.02211227905)
(0.01340907148 -8.165984989e-19 0.0118217226)
(0.006146305602 4.06700432e-19 0.08880667751)
(0.0004921480207 4.110366194e-19 0.01913704053)
(0.0008436634905 5.270829205e-19 0.01913081219)
(0.001322741534 -1.690091987e-17 0.01913541551)
(0.001819145508 -2.051654977e-18 0.019146017)
(0.002319600611 6.740692848e-19 0.0191615559)
(0.002819921033 5.669992129e-19 0.01918172303)
(0.003318024884 4.457508936e-19 0.01920640502)
(0.003812527481 1.364817628e-18 0.01923556347)
(0.00430232222 -1.366992639e-17 0.01926919412)
(0.004786426438 -6.662945299e-18 0.01930730057)
(0.005263917269 1.186381447e-17 0.01934987586)
(0.005733903967 2.029501566e-17 0.01939688882)
(0.006195517653 8.895986878e-18 0.01944827188)
(0.006647910624 1.514099092e-18 0.01950390962)
(0.007090261704 1.950456906e-20 0.01956362775)
(0.007521785912 2.624961253e-19 0.01962718246)
(0.007941747494 4.568994649e-19 0.01969425012)
(0.008349475684 4.764877515e-19 0.01976441739)
(0.008744382771 4.827656532e-19 0.01983717172)
(0.009125984048 4.765531819e-19 0.01991189238)
(0.009493919218 4.820469663e-19 0.01998784197)
(0.009847974791 4.702624892e-19 0.02006415815)
(0.0101881069 4.656240119e-19 0.02013984554)
(0.01051446375 4.804789441e-19 0.02021376736)
(0.0108274056 4.66878238e-19 0.02028463625)
(0.01112752435 4.774985943e-19 0.02035099497)
(0.01141566013 4.739116802e-19 0.0204112174)
(0.01169290512 4.771920834e-19 0.02046347958)
(0.01196059492 4.277336733e-19 0.02050573189)
(0.01222028269 4.073972094e-19 0.02053566451)
(0.01247368329 4.01136227e-19 0.02055065936)
(0.0127225826 4.070229074e-19 0.02054773701)
(0.01296859964 1.596908851e-19 0.02052340664)
(0.0132130074 1.481913759e-18 0.02047440345)
(0.01345498715 -3.931628119e-18 0.02039103417)
(0.01370145797 -5.637830751e-18 0.02032057638)
(0.01390277234 -5.21438673e-18 0.01988408354)
(0.01409766757 -3.252082395e-18 0.02150502956)
(0.01288608582 -7.212733426e-19 0.01219868984)
(0.005722425645 4.992811423e-19 0.09853467749)
(0.0004950478652 4.092563916e-19 0.01843991582)
(0.0008486738101 5.141356258e-19 0.01843439147)
(0.001330612274 -1.690599981e-17 0.01844022017)
(0.001829978405 -2.051438283e-18 0.01845261871)
(0.00233344722 6.782772147e-19 0.0184705712)
(0.002836827261 5.674292189e-19 0.01849379354)
(0.003338036988 4.474343863e-19 0.01852219256)
(0.003835689241 1.358881599e-18 0.01855574812)
(0.0043286698 -1.368310893e-17 0.01859447346)
(0.004815982393 -6.65489612e-18 0.01863838884)
(0.005296683972 1.189858372e-17 0.01868750142)
(0.005769856709 2.032905853e-17 0.01874179024)
(0.006234597512 8.879749693e-18 0.01880119233)
(0.006690017175 1.498795264e-18 0.01886558962)
(0.007135245678 1.850328665e-20 0.01893479608)
(0.007569441884 2.679179405e-19 0.01900854537)
(0.00799180669 4.576782633e-19 0.01908647881)
(0.00840159899 4.799521933e-19 0.01916813393)
(0.008798153972 4.804452793e-19 0.01925293357)
(0.009180903301 4.706223777e-19 0.01934017571)
(0.009549396684 4.886652347e-19 0.0194290241)
(0.009903324251 4.75337769e-19 0.01951849945)
(0.01024253907 4.786988324e-19 0.01960747131)
(0.01056707887 4.801447686e-19 0.0196946504)
(0.01087718556 4.664155021e-19 0.01977858193)
(0.01117331918 4.739844868e-19 0.01985762772)
(0.01145617422 4.705597573e-19 0.01992996695)
(0.0117266812 4.635956256e-19 0.01999358608)
(0.01198598956 4.150074839e-19 0.02004625419)
(0.01223543873 3.649033176e-19 0.02008550667)
(0.012476503 3.970033609e-19 0.02010861921)
(0.01271069878 3.875984785e-19 0.02011258441)
(0.01293943272 1.827743668e-19 0.02009407398)
(0.01316396837 1.471541008e-18 0.02004996814)
(0.01338413242 -3.96063109e-18 0.01997274427)
(0.01361065384 -5.730894936e-18 0.01989533713)
(0.01379157847 -5.215644864e-18 0.0195316385)
(0.01385568452 -3.112043661e-18 0.02076798487)
(0.01227454765 -5.738457613e-19 0.01296171797)
(0.005298653506 5.256082936e-19 0.1079263378)
(0.0004983176277 4.069426224e-19 0.01773837)
(0.000854325337 5.134876594e-19 0.01773357699)
(0.00133950362 -1.691493813e-17 0.01774063814)
(0.001842239985 -2.042947417e-18 0.01775482466)
(0.002349149502 6.832259285e-19 0.01777516709)
(0.00285603159 5.688632964e-19 0.01780140996)
(0.003360803755 4.46847327e-19 0.01783348548)
(0.003862075765 1.355443055e-18 0.01787139763)
(0.00435872507 -1.3694441e-17 0.01791518282)
(0.004849740449 -6.62669382e-18 0.01796488413)
(0.005334156421 1.191201014e-17 0.01802052915)
(0.005811024766 2.034716424e-17 0.01808211358)
(0.006279403698 8.862605359e-18 0.01814958573)
(0.006738356833 1.475306849e-18 0.01822283154)
(0.007186958411 1.891949886e-20 0.01830166)
(0.007624303059 2.774470915e-19 0.01838578885)
(0.00804951913 4.596915144e-19 0.01847483089)
(0.008461784968 4.874470758e-19 0.01856828081)
(0.008860347588 4.728914827e-19 0.01866550289)
(0.009244543279 4.742586512e-19 0.01876571963)
(0.009613819605 4.932310877e-19 0.0188680015)
(0.009967758132 4.793959767e-19 0.01897125779)
(0.01030609711 4.792454555e-19 0.01907422862)
(0.01062875323 4.780434057e-19 0.01917547816)
(0.01093584134 4.66176451e-19 0.01927338999)
(0.0112276857 4.730624684e-19 0.01936615667)
(0.0115048349 4.615225584e-19 0.0194517699)
(0.01176806535 4.520300734e-19 0.01952803856)
(0.01201836215 4.120390028e-19 0.01959256524)
(0.01225689154 3.821219375e-19 0.01964274402)
(0.01248495475 3.688037844e-19 0.01967575282)
(0.01270390209 4.267226004e-19 0.01968856684)
(0.01291499508 2.04545628e-19 0.01967796089)
(0.01311944454 1.544259563e-18 0.01964081721)
(0.01331703768 -4.051023792e-18 0.01957146093)
(0.01351926014 -5.846531528e-18 0.01948614706)
(0.01367236846 -5.233688224e-18 0.01919934561)
(0.01362874669 -2.885487645e-18 0.01999020005)
(0.01179668218 -4.555229056e-19 0.01406950984)
(0.004985386506 5.593300245e-19 0.117004814)
(0.0005019554156 4.004091315e-19 0.01703188216)
(0.0008606134303 5.012961429e-19 0.01702784148)
(0.001349405417 -1.692475947e-17 0.01703612965)
(0.001855913088 -2.02244267e-18 0.01705208087)
(0.002366683965 6.885875721e-19 0.01707477524)
(0.002877506527 5.696741203e-19 0.01710398952)
(0.003386296957 4.485712158e-19 0.0171396863)
(0.00389166188 1.353413541e-18 0.0171818997)
(0.004392469999 -1.37266656e-17 0.01723069551)
(0.004887694038 -6.607707097e-18 0.01728614645)
(0.005376344028 1.196149488e-17 0.01734830766)
(0.005857438189 2.036317919e-17 0.01741719894)
(0.006329991673 8.834710654e-18 0.01749278749)
(0.006793015279 1.457455495e-18 0.01757497102)
(0.00724552061 2.238727821e-20 0.01766356124)
(0.007686529925 2.849009157e-19 0.01775826767)
(0.008115089736 4.681905615e-19 0.01785868197)
(0.008530287499 4.852602032e-19 0.01796426316)
(0.008931270849 4.754613164e-19 0.01807432372)
(0.009317268869 4.823434795e-19 0.01818801696)
(0.009687614831 4.95403944e-19 0.01830432596)
(0.01004176969 4.800056866e-19 0.01842205406)
(0.01037934549 4.788188337e-19 0.01853981708)
(0.01070012776 4.667036133e-19 0.01865603758)
(0.01100409605 4.591727538e-19 0.01876894182)
(0.01129143768 4.662875346e-19 0.0188765582)
(0.0115625559 4.477281549e-19 0.01897670028)
(0.01181807947 4.409528285e-19 0.01906699972)
(0.01205885107 4.089303264e-19 0.01914489799)
(0.01228589963 3.843115345e-19 0.01920764705)
(0.01250039949 3.764910507e-19 0.01925232246)
(0.01270359568 4.295257994e-19 0.01927586842)
(0.01289669759 2.298839762e-19 0.01927512674)
(0.01308087147 1.543720962e-18 0.01924694682)
(0.01325559843 -4.098671915e-18 0.01918769559)
(0.01343179836 -5.909152775e-18 0.01909643003)
(0.01354983387 -5.208498687e-18 0.01889387201)
(0.01338274553 -2.775506618e-18 0.01922744832)
(0.01134213095 -3.518983107e-19 0.0153883623)
(0.00470874309 5.509610674e-19 0.1258042868)
(0.0005059550492 3.851376476e-19 0.01631993618)
(0.0008675269058 4.918667598e-19 0.01631666406)
(0.001360299 -1.69326949e-17 0.01632616314)
(0.001870971124 -2.010564503e-18 0.016343842)
(0.00238601724 6.848239313e-19 0.01636883484)
(0.002901214371 5.679724996e-19 0.01640095468)
(0.003414477937 4.50917056e-19 0.0164401997)
(0.003924412089 1.348799336e-18 0.01648664066)
(0.004429876797 -1.375843694e-17 0.01654037955)
(0.004929827915 -6.577315955e-18 0.01660152625)
(0.005423249221 1.204070421e-17 0.01667017153)
(0.005909122416 2.037284857e-17 0.0167463677)
(0.00638641535 8.803254417e-18 0.0168301095)
(0.006854080425 1.435557192e-18 0.01692131524)
(0.007311059684 2.603893621e-20 0.01701980821)
(0.007756294788 2.883260754e-19 0.01712529834)
(0.00818874096 4.69397938e-19 0.01723736463)
(0.008607384211 4.778503182e-19 0.01735543841)
(0.009011261335 5.043585618e-19 0.0174787878)
(0.009399482115 4.856679753e-19 0.0176065038)
(0.009771253137 4.812682736e-19 0.0177374882)
(0.0101259025 4.787181409e-19 0.01787044368)
(0.01046290453 4.797982317e-19 0.01800386633)
(0.01078190365 4.250611696e-19 0.0181360408)
(0.01108273638 4.545168242e-19 0.01826503879)
(0.01136544959 4.636050881e-19 0.01838872336)
(0.01163030316 4.364908829e-19 0.0185047403)
(0.0118777851 4.263197479e-19 0.01861053539)
(0.01210861252 4.00735871e-19 0.01870338525)
(0.01232370419 4.005388232e-19 0.01878039029)
(0.01252414101 4.021283562e-19 0.01883851478)
(0.01271110539 4.260523902e-19 0.01887464487)
(0.01288580449 2.506301262e-19 0.01888563737)
(0.01304946514 1.528991816e-18 0.01886830782)
(0.01320189966 -4.105273789e-18 0.01882104672)
(0.01335236274 -6.017341999e-18 0.01872728129)
(0.01343923597 -5.149328992e-18 0.01861622543)
(0.01315666023 -2.693094835e-18 0.01850311456)
(0.01093724439 -2.544241111e-19 0.01684453299)
(0.004469117084 5.578494171e-19 0.1343538963)
(0.0005103066442 4.105787864e-19 0.01560202716)
(0.0008750486481 5.031568928e-19 0.0155995358)
(0.001372157385 -1.694342072e-17 0.01561021951)
(0.001887377476 -1.998618436e-18 0.01562957476)
(0.002407104665 6.90271831e-19 0.01565679541)
(0.002927105227 5.594996102e-19 0.01569173567)
(0.003445295333 4.416284271e-19 0.01573443476)
(0.003960277985 1.334810287e-18 0.01578500714)
(0.004470905013 -1.37832378e-17 0.01584359882)
(0.004976115045 -6.558275949e-18 0.01591036508)
(0.005474864176 1.205697086e-17 0.01598544131)
(0.005966094887 2.039466536e-17 0.01606892182)
(0.006448723633 8.743676151e-18 0.01616083873)
(0.006921638908 1.392330818e-18 0.01626114093)
(0.007383706234 7.136221304e-21 0.01636967322)
(0.007833778311 2.712604341e-19 0.01648615581)
(0.008270709373 4.53219095e-19 0.01661016447)
(0.008693373119 4.642165283e-19 0.01674111177)
(0.009100683651 4.618570186e-19 0.01687822977)
(0.009491618879 4.760667167e-19 0.01702055446)
(0.009865245796 4.85719554e-19 0.01716691271)
(0.01022074687 4.647437007e-19 0.01731591174)
(0.0105574467 4.591747857e-19 0.01746593179)
(0.01087483808 4.61526631e-19 0.01761512198)
(0.01117260637 4.491425349e-19 0.01776140038)
(0.01145065035 4.458512758e-19 0.01790246192)
(0.01170909151 4.140565129e-19 0.01803578458)
(0.01194828327 4.143492097e-19 0.01815862448)
(0.01216882558 3.891105783e-19 0.01826807579)
(0.01237154565 3.604610103e-19 0.01836107716)
(0.01255745467 3.442777107e-19 0.01843446434)
(0.01272771301 3.99241529e-19 0.01848502773)
(0.01288357787 1.957988511e-19 0.01850958368)
(0.01302641281 1.580830741e-18 0.01850486021)
(0.0131565141 -4.1969738e-18 0.01847088023)
(0.01328060334 -6.060199362e-18 0.0183792293)
(0.01334054256 -5.185265417e-18 0.01836011376)
(0.01296211238 -2.572663265e-18 0.01781676367)
(0.01057408646 -1.902885902e-19 0.01841691867)
(0.004248038583 6.08348611e-19 0.1426767529)
(0.0005149967237 4.081382166e-19 0.01487766651)
(0.0008831556214 4.883994386e-19 0.01487596436)
(0.001384944892 -1.695783955e-17 0.01488779594)
(0.001905084519 -1.973345044e-18 0.01490876099)
(0.002429888706 6.882780417e-19 0.01493811958)
(0.002955114873 5.555013528e-19 0.01497577267)
(0.00347868242 4.394576294e-19 0.0150218067)
(0.003999195233 1.326374325e-18 0.01507638755)
(0.004515498251 -1.381801075e-17 0.01513971396)
(0.005026513082 -6.530277617e-18 0.01521199575)
(0.005531167113 1.212119369e-17 0.01529342302)
(0.006028361192 2.041919573e-17 0.01538414273)
(0.006516956483 8.698861478e-18 0.01548423537)
(0.006995772126 1.358603433e-18 0.01559369166)
(0.007463590104 -6.548077086e-22 0.01571238915)
(0.007919165604 2.676977044e-19 0.01584006935)
(0.008361241872 4.478993955e-19 0.01597631542)
(0.008788568982 4.642569638e-19 0.01612053114)
(0.009199925927 4.61346836e-19 0.01627192154)
(0.009594145506 4.698321127e-19 0.01642947564)
(0.009970141425 4.789349319e-19 0.01659195201)
(0.01032693686 4.627603497e-19 0.01675786751)
(0.01066369368 4.564266389e-19 0.01692548979)
(0.01097974149 4.688277584e-19 0.01709283362)
(0.01127460456 4.546526242e-19 0.01725766291)
(0.01154802572 4.434052828e-19 0.01741750122)
(0.01179998734 4.160015537e-19 0.01756964558)
(0.0120307142 4.083929652e-19 0.01771116574)
(0.01224069367 3.853308679e-19 0.01783894735)
(0.01243066945 3.614981998e-19 0.0179497554)
(0.01260160637 3.488171903e-19 0.01804026715)
(0.01275467478 3.967608206e-19 0.01810713335)
(0.01289120619 2.531416439e-19 0.01814707706)
(0.01301271843 1.622758211e-18 0.01815667117)
(0.01312000159 -4.219837154e-18 0.01813715002)
(0.01321871941 -6.134724687e-18 0.01805172452)
(0.01325568364 -5.155277768e-18 0.01812020235)
(0.01278754242 -2.471312278e-18 0.01715378724)
(0.01023964853 -1.034377295e-19 0.0201069923)
(0.004043721773 5.866162244e-19 0.1507918844)
(0.0005200080531 4.103233812e-19 0.01414638715)
(0.000891818476 4.774589101e-19 0.01414547895)
(0.001398616342 -1.697247067e-17 0.01415841037)
(0.001924032272 -1.953052018e-18 0.01418090162)
(0.002454297089 6.868916247e-19 0.01421228644)
(0.002985162345 5.545534778e-19 0.01425251887)
(0.003514554124 4.40639812e-19 0.01430173941)
(0.004041080169 1.319585749e-18 0.01436017394)
(0.004563580474 -1.385569711e-17 0.01442808369)
(0.005080960407 -6.496503933e-18 0.01450574306)
(0.005592118117 1.22288831e-17 0.01459340814)
(0.006095910756 2.042896309e-17 0.01469129044)
(0.006591140517 8.648650626e-18 0.0147995312)
(0.007076551807 1.332846305e-18 0.0149181755)
(0.007550835984 -9.791239574e-21 0.01504714629)
(0.008012641935 2.71834624e-19 0.01518621872)
(0.008460591536 4.362253087e-19 0.01533499522)
(0.00889329937 4.608171707e-19 0.01549288187)
(0.009309396185 4.320294482e-19 0.01565906673)
(0.009707555543 4.311048425e-19 0.01583250056)
(0.0100865231 4.59119463e-19 0.01601188072)
(0.01044514782 4.55562621e-19 0.01619563883)
(0.0107824145 4.448230004e-19 0.01638193263)
(0.01109747618 4.91178668e-19 0.01656864284)
(0.01138968384 4.692797139e-19 0.01675337774)
(0.01165861537 4.32347271e-19 0.01693348365)
(0.01190410457 4.151580796e-19 0.01710606106)
(0.01212625437 3.761761144e-19 0.01726798414)
(0.01232544122 3.93194849e-19 0.01741591918)
(0.01250233104 3.802550719e-19 0.01754642461)
(0.01265786889 3.906110174e-19 0.01765598517)
(0.01279325073 4.08556807e-19 0.01774107172)
(0.01290989656 3.269180898e-19 0.01779826288)
(0.01300945935 1.594636843e-18 0.01782393735)
(0.01309280766 -4.231173316e-18 0.01782039666)
(0.01316731825 -6.229301868e-18 0.01774245138)
(0.01318604594 -5.136073602e-18 0.01789235454)
(0.01264372266 -2.413525364e-18 0.01650307216)
(0.009938391224 7.425499027e-20 0.02191837358)
(0.003850987613 6.01524139e-19 0.1587126544)
(0.0005253192889 4.134950421e-19 0.01340774912)
(0.000901000897 4.807392904e-19 0.0134076357)
(0.001413115923 -1.698086682e-17 0.01342160644)
(0.001944146703 -1.928034471e-18 0.01344552119)
(0.002480240468 6.904521878e-19 0.01347879567)
(0.003017147064 5.537322651e-19 0.01352144407)
(0.003552803745 4.444439012e-19 0.01357366862)
(0.004085826059 1.320603482e-18 0.01363576457)
(0.004615051848 -1.389164592e-17 0.01370806663)
(0.005139371671 -6.45115725e-18 0.01379092487)
(0.005657654453 1.227087144e-17 0.01388467394)
(0.006168711989 2.046407091e-17 0.01398960315)
(0.006671284064 8.610355882e-18 0.01410592827)
(0.007164035064 1.295775322e-18 0.01423376285)
(0.007645558538 -2.847266204e-21 0.01437308932)
(0.008114388015 2.819940163e-19 0.01452373034)
(0.00856901314 4.55844477e-19 0.01468532084)
(0.009007900488 4.636339083e-19 0.01485728162)
(0.009429518578 4.635155819e-19 0.01503879495)
(0.009832366535 4.738305505e-19 0.01522878292)
(0.01021500587 4.825722887e-19 0.01542588941)
(0.0105760949 4.66286811e-19 0.01562846603)
(0.01091442493 4.668385744e-19 0.01583456315)
(0.01122895622 4.612894474e-19 0.01604192738)
(0.01151885223 4.445619759e-19 0.01624800824)
(0.0117835147 4.326387022e-19 0.01644996648)
(0.01202261766 4.162943458e-19 0.01664469298)
(0.01223613367 4.210828136e-19 0.01682884173)
(0.01242433542 3.923985545e-19 0.01699885679)
(0.01258782185 3.851995514e-19 0.01715104271)
(0.0127275304 3.908181559e-19 0.01728165556)
(0.01284470092 4.554930302e-19 0.01738695063)
(0.01294084646 2.986819386e-19 0.0174633147)
(0.01301782688 1.646119765e-18 0.01750686765)
(0.01307724948 -4.3076133e-18 0.01752073442)
(0.01312682705 -6.289167594e-18 0.01745063021)
(0.01312508313 -5.149635792e-18 0.01767517404)
(0.01251048952 -2.286522725e-18 0.01585705138)
(0.009655998299 4.6272628e-20 0.02385422724)
(0.003670088188 6.035858541e-19 0.1664506269)
(0.000530904485 4.149815005e-19 0.0126613457)
(0.0009106587513 4.733650533e-19 0.01266202372)
(0.001428375794 -1.699843514e-17 0.01267695931)
(0.001965337736 -1.9089823e-18 0.01270217323)
(0.002507609836 6.906117976e-19 0.01273717238)
(0.003050945696 5.550187648e-19 0.01278203904)
(0.003593299247 4.478132834e-19 0.01283704569)
(0.004133298849 1.312308588e-18 0.0129025671)
(0.004669784054 -1.393763417e-17 0.01297902381)
(0.005201632785 -6.407535735e-18 0.01306685383)
(0.005727685296 1.236585546e-17 0.01316648434)
(0.00624670683 2.048333799e-17 0.01327829716)
(0.006757371632 8.548827962e-18 0.01340259796)
(0.007258258871 1.267869731e-18 0.01353958451)
(0.007747856993 -6.557365345e-21 0.0136893145)
(0.00822457479 2.798371396e-19 0.01385167353)
(0.008686758268 4.504792776e-19 0.01402634395)
(0.009132712703 4.642011577e-19 0.01421277509)
(0.009560729403 4.643268317e-19 0.01441015587)
(0.009969116668 4.332546844e-19 0.01461739047)
(0.01035623438 4.61548113e-19 0.01483307775)
(0.01072053178 4.629455524e-19 0.0150554952)
(0.01106058756 4.500531634e-19 0.01528258858)
(0.01137514963 4.482319034e-19 0.01551197061)
(0.0116631772 4.578339766e-19 0.01574092577)
(0.01192388209 4.379086706e-19 0.01596642)
(0.01215676553 4.28704028e-19 0.01618512193)