/*--------------------------------*- C++ -*----------------------------------*\
| =========                 |                                                 |
| \\      /  F ield         | OpenFOAM: The Open Source CFD Toolbox           |
|  \\    /   O peration     | Version:  v1912                                 |
|   \\  /    A nd           | Website:  www.openfoam.com                      |
|    \\/     M anipulation  |                                                 |
\*---------------------------------------------------------------------------*/
FoamFile
{
    version     2.0;
    format      ascii;
    class       volVectorField;
    location    "0.7";
    object      U.liquid_0;
}
// * * * * * * * * * * * * * * * * * * * * * * * * * * * * * * * * * * * * * //

dimensions      [0 1 -1 0 0 0 0];


internalField   nonuniform List<vector> 
4800
(
(0.0004519869811 4.169578231e-19 -0.0003192646203)
(0.0007808490681 4.923864611e-19 -0.0003233472678)
(0.001229258711 -1.600653152e-17 -0.0003235410872)
(0.001693600039 -1.840018475e-18 -0.000322855917)
(0.002161278963 6.399160013e-19 -0.0003216960923)
(0.002628341532 5.303577664e-19 -0.0003201409191)
(0.003092812191 4.182381242e-19 -0.0003182214992)
(0.003553375231 1.283994865e-18 -0.0003159494899)
(0.004008983649 -1.307567132e-17 -0.0003133308781)
(0.004458718495 -6.093449684e-18 -0.0003103695979)
(0.004901730719 1.147509343e-17 -0.0003070694918)
(0.005337216982 1.920100364e-17 -0.0003034359472)
(0.005764411782 8.097921311e-18 -0.0002994770132)
(0.006182588243 1.30345757e-18 -0.0002952043096)
(0.006591064217 2.028924667e-20 -0.0002906338585)
(0.006989212143 2.651144672e-19 -0.0002857868784)
(0.007376471845 4.30742253e-19 -0.0002806905458)
(0.007752365805 4.637585528e-19 -0.0002753787395)
(0.008116516649 4.542494648e-19 -0.0002698927698)
(0.008468666706 4.318374926e-19 -0.000264282103)
(0.008808699573 4.368345349e-19 -0.0002586051109)
(0.009136663785 4.441675885e-19 -0.0002529298817)
(0.009452798819 4.44229507e-19 -0.0002473351676)
(0.009757564065 4.293964223e-19 -0.0002419116346)
(0.01005167205 4.54230071e-19 -0.0002367637478)
(0.01033612593 4.4541501e-19 -0.000232011099)
(0.01061226469 4.436232815e-19 -0.0002277926395)
(0.01088182227 4.805920047e-19 -0.000224272412)
(0.01114700789 4.870572793e-19 -0.0002216490748)
(0.01141062031 4.791879689e-19 -0.0002201705284)
(0.01167622937 4.593847605e-19 -0.0002201668923)
(0.01194846936 4.424094795e-19 -0.0002220968002)
(0.01223364362 2.678717666e-19 -0.0002267175825)
(0.01254016686 1.400291351e-18 -0.0002348197721)
(0.0128849775 -3.919857833e-18 -0.0002515321676)
(0.01326718324 -5.188430779e-18 -0.0002600645147)
(0.01383566421 -4.655810974e-18 -0.0003780773296)
(0.01387751736 -3.189095207e-18 8.993224344e-05)
(0.01831162885 -1.511507071e-18 -0.00333521996)
(0.01132371325 4.702140494e-21 0.007720518884)
(0.0004801035761 4.403575206e-19 -0.0009776542078)
(0.0008233644001 5.152911767e-19 -0.0009859957816)
(0.001291799401 -1.682270998e-17 -0.0009862332798)
(0.001777595254 -2.058828366e-18 -0.000984123549)
(0.002267356932 6.717419731e-19 -0.0009806416064)
(0.002756863247 5.703932107e-19 -0.0009760022281)
(0.003244044926 4.437500471e-19 -0.0009702877427)
(0.003727545773 1.363619376e-18 -0.0009635264428)
(0.004206305344 -1.357687178e-17 -0.0009557375532)
(0.004679406284 -6.6554375e-18 -0.0009469307994)
(0.005146005203 1.172526207e-17 -0.0009371163667)
(0.00560530655 2.016853043e-17 -0.0009263094767)
(0.00605655359 8.892180064e-18 -0.0009145334924)
(0.006499028461 1.550564842e-18 -0.000901822606)
(0.006932057929 1.81530857e-20 -0.0008882243307)
(0.007355023163 2.565556773e-19 -0.0008738018946)
(0.007767372624 4.526289175e-19 -0.0008586365479)
(0.008168637585 4.768019901e-19 -0.0008428298199)
(0.008558449979 4.670223791e-19 -0.0008265057261)
(0.008936562408 4.52581357e-19 -0.0008098129696)
(0.009302870231 4.698672169e-19 -0.0007929272004)
(0.009657435823 4.710808407e-19 -0.000776053473)
(0.01000051519 4.794421223e-19 -0.0007594290825)
(0.01033258755 4.71332346e-19 -0.0007433273146)
(0.01065438886 4.686437685e-19 -0.0007280628943)
(0.01096694941 5.021482459e-19 -0.0007139960257)
(0.01127163905 5.166506938e-19 -0.0007015449667)
(0.01157022494 4.8648516e-19 -0.0006912023863)
(0.01186494412 4.708871804e-19 -0.0006835603943)
(0.01215859261 4.596382718e-19 -0.000679345865)
(0.0124546927 4.790659298e-19 -0.0006795345534)
(0.01275776338 4.707429492e-19 -0.00068546921)
(0.01307370043 2.241977797e-19 -0.0006992534575)
(0.01341012576 1.448181423e-18 -0.000723153256)
(0.01377885062 -3.71916591e-18 -0.0007697078216)
(0.01418346992 -5.209955483e-18 -0.0007977298646)
(0.01477759065 -5.153546935e-18 -0.001151531437)
(0.01507013936 -3.635734638e-18 9.985654378e-05)
(0.01689685472 -1.565821173e-18 -0.008094436748)
(0.009259483177 6.048595312e-20 0.02190419956)
(0.0004819978728 4.041101169e-19 -0.001657242203)
(0.0008261186787 5.195408547e-19 -0.001665597546)
(0.001295470654 -1.683294625e-17 -0.001665307676)
(0.001782104482 -2.062418495e-18 -0.001661676095)
(0.002272770186 6.769104505e-19 -0.001655866449)
(0.002763250777 5.660029942e-19 -0.001648177236)
(0.003251464262 4.445652289e-19 -0.001638721821)
(0.00373604992 1.367292337e-18 -0.001627542019)
(0.004215942352 -1.358089221e-17 -0.001614663911)
(0.004690212746 -6.663141269e-18 -0.001600100769)
(0.00515800819 1.173556215e-17 -0.00158386745)
(0.005618523856 2.018649477e-17 -0.001565987485)
(0.006070993013 8.912382918e-18 -0.001546498119)
(0.006514686683 1.527260922e-18 -0.001525454777)
(0.006948919206 2.28089791e-20 -0.00150293523)
(0.007373057886 2.5684261e-19 -0.001479043597)
(0.007786535818 4.623072983e-19 -0.001453914233)
(0.008188867358 4.654613816e-19 -0.001427715513)
(0.008579665932 4.584971007e-19 -0.00140065354)
(0.008958663952 4.693159121e-19 -0.001372975812)
(0.009325734768 5.005110816e-19 -0.001344974992)
(0.009680916601 4.823827286e-19 -0.001316992932)
(0.01002443857 4.72875743e-19 -0.001289425284)
(0.01035674914 4.564115088e-19 -0.001262727494)
(0.01067854772 4.738258622e-19 -0.00123742326)
(0.01099081973 4.936617736e-19 -0.001214111256)
(0.01129487649 4.822104039e-19 -0.001193484061)
(0.01159240326 4.846534113e-19 -0.001176353027)
(0.0118855192 4.790608919e-19 -0.001163684342)
(0.01217684542 4.503381846e-19 -0.001156641563)
(0.01246959724 4.206574562e-19 -0.001156763807)
(0.01276773753 3.760331063e-19 -0.001166136375)
(0.01307615044 2.759815475e-19 -0.001187827826)
(0.01340087004 1.420059274e-18 -0.001225272977)
(0.01375006124 -3.652428901e-18 -0.001294349234)
(0.014125761 -5.247710863e-18 -0.001341198883)
(0.01459353221 -5.120856185e-18 -0.001867057204)
(0.01490432604 -3.678655599e-18 -0.0001424099843)
(0.01559129099 -1.267010751e-18 -0.01008766121)
(0.008008008156 1.763970875e-19 0.03400000285)
(0.0004835866535 4.086593035e-19 -0.002339290512)
(0.0008287326353 5.075564409e-19 -0.002347245366)
(0.001299334622 -1.683236313e-17 -0.002346087318)
(0.001787153875 -2.059677823e-18 -0.002340845855)
(0.002279005646 6.724139456e-19 -0.002332692692)
(0.002770698229 5.661492635e-19 -0.00232196116)
(0.003260154524 4.45776771e-19 -0.002308779874)
(0.003746009514 1.365609185e-18 -0.002293202004)
(0.004227190313 -1.358378986e-17 -0.002275252569)
(0.004702760137 -6.657130614e-18 -0.002254946293)
(0.005171855211 1.175587148e-17 -0.002232300994)
(0.005633657456 2.021561187e-17 -0.002207346684)
(0.006087384432 8.901548709e-18 -0.002180132627)
(0.006532288856 1.533536492e-18 -0.002150733582)
(0.006967664039 2.06408883e-20 -0.002119255662)
(0.007392853476 2.639237191e-19 -0.002085841963)
(0.007807263645 4.511651125e-19 -0.002050678025)
(0.008210379459 4.679989482e-19 -0.002013997152)
(0.008601782029 4.716831742e-19 -0.001976085587)
(0.008981168508 4.762165023e-19 -0.001937287613)
(0.009348373827 5.080582821e-19 -0.00189801072)
(0.009703394189 4.800789107e-19 -0.001858731024)
(0.01004641227 4.934367701e-19 -0.001819999341)
(0.01037782399 4.851576284e-19 -0.001782448772)
(0.01069826753 4.807814526e-19 -0.001746805552)
(0.01100865515 4.907963663e-19 -0.001713898113)
(0.01131020561 4.841300526e-19 -0.001684677891)
(0.01160447949 4.930296858e-19 -0.001660250218)
(0.01189341952 4.659735925e-19 -0.00164191673)
(0.01217940242 4.414709792e-19 -0.001631225849)
(0.01246524858 4.20965801e-19 -0.001630132179)
(0.01275423142 3.911042045e-19 -0.001641226911)
(0.01305007914 1.813522416e-19 -0.001668127381)
(0.01335682616 1.45498055e-18 -0.001714842845)
(0.01367814217 -3.718853624e-18 -0.001798022815)
(0.01401364159 -5.361555968e-18 -0.001856313489)
(0.01436156273 -5.169405803e-18 -0.002440275294)
(0.01465672351 -3.544696795e-18 -0.0005174351431)
(0.01496087876 -1.086698759e-18 -0.01091288957)
(0.007475673663 2.777549757e-19 0.04493601145)
(0.0004854591644 4.100697026e-19 -0.003023783743)
(0.0008318694645 5.215326922e-19 -0.003031212184)
(0.001304120982 -1.683745416e-17 -0.003029012147)
(0.001793586653 -2.061355389e-18 -0.003022084808)
(0.002287088799 6.765318278e-19 -0.003011565704)
(0.002780452726 5.683987151e-19 -0.002997791826)
(0.003271607556 4.458304607e-19 -0.002980894795)
(0.003759186725 1.365694963e-18 -0.002960929229)
(0.004242111144 -1.359487258e-17 -0.002937916971)
(0.004719434767 -6.655105749e-18 -0.002911870294)
(0.00519028087 1.175854709e-17 -0.002882806784)
(0.00565381478 2.022787853e-17 -0.002850759999)
(0.006109233799 8.895565304e-18 -0.002815788314)
(0.006555766606 1.518562212e-18 -0.00277798291)
(0.006992678623 2.316674251e-20 -0.002737475325)
(0.00741928156 2.63255443e-19 -0.002694444713)
(0.007834946202 4.548549328e-19 -0.002649124903)
(0.008239117868 4.795731239e-19 -0.002601811232)
(0.008631334168 4.729677036e-19 -0.002552867175)
(0.009011244762 4.715467032e-19 -0.002502730811)
(0.009378632857 4.82067747e-19 -0.002451921243)
(0.009733438204 4.732437302e-19 -0.002401045203)
(0.01007578135 4.855837975e-19 -0.002350804207)
(0.01040598873 4.872392055e-19 -0.002302002972)
(0.01072461822 4.773380642e-19 -0.002255561533)
(0.01103248733 4.819859648e-19 -0.002212526963)
(0.01133069835 4.774393929e-19 -0.002174090397)
(0.01162066039 4.897547589e-19 -0.002141621474)
(0.01190411002 4.570521498e-19 -0.002116709975)
(0.01218312891 4.167463324e-19 -0.002101223029)
(0.01246012826 3.725236318e-19 -0.002097407238)
(0.01273773701 4.229565068e-19 -0.00210810776)
(0.0130186143 1.993735711e-19 -0.002137109632)
(0.01330512591 1.446304148e-18 -0.002188352361)
(0.01359760942 -3.817108832e-18 -0.002277006848)
(0.01389618796 -5.462292501e-18 -0.002340285096)
(0.01416410759 -5.18778265e-18 -0.002904178705)
(0.01442733732 -3.365965446e-18 -0.0009588413703)
(0.01449783335 -9.652228686e-19 -0.01124512027)
(0.007122074494 3.566221265e-19 0.0553247739)
(0.000487650913 4.078253031e-19 -0.003711147809)
(0.0008355814703 5.160190055e-19 -0.003717968066)
(0.001309868731 -1.684214294e-17 -0.003714633856)
(0.00180141339 -2.05058597e-18 -0.003705971743)
(0.00229701268 6.703947357e-19 -0.003693072689)
(0.002792498749 5.65539631e-19 -0.003676261161)
(0.003285805328 4.471920655e-19 -0.003655661834)
(0.00377556477 1.363958598e-18 -0.003631323187)
(0.004260691868 -1.361723227e-17 -0.003603259668)
(0.004740230025 -6.64212251e-18 -0.003571476872)
(0.005213287304 1.177412524e-17 -0.003535988163)
(0.005679009068 2.021284767e-17 -0.003496826802)
(0.006136567819 8.867500975e-18 -0.003454056459)
(0.00658516251 1.517334898e-18 -0.0034077809)
(0.00702402383 2.11071992e-20 -0.003358153244)
(0.007452423744 2.619733275e-19 -0.003305384879)
(0.007869688294 4.495394455e-19 -0.003249754117)
(0.008275213106 4.700273079e-19 -0.003191614562)
(0.008668481186 4.786381391e-19 -0.003131403156)
(0.009049082637 4.735391209e-19 -0.003069647935)
(0.009416735978 4.896386607e-19 -0.003006975576)
(0.009771310702 4.812286632e-19 -0.002944118932)
(0.01011285062 4.898142307e-19 -0.002881924877)
(0.01044159741 4.791131774e-19 -0.002821362937)
(0.01075801273 4.700507401e-19 -0.002763536752)
(0.01106280269 4.716669962e-19 -0.002709699816)
(0.01135693712 4.675378967e-19 -0.002661263372)
(0.01164166032 4.884176998e-19 -0.002619831616)
(0.01191849506 4.305225665e-19 -0.002587236846)
(0.01218923105 3.948342366e-19 -0.002565589993)
(0.01245589037 4.001907437e-19 -0.002557350395)
(0.01272060043 4.297154934e-19 -0.002565446611)
(0.01298532415 1.858382776e-19 -0.002593559912)
(0.01325154847 1.439724671e-18 -0.002645266383)
(0.01351816921 -3.832797371e-18 -0.002732996862)
(0.01378825942 -5.516481291e-18 -0.002799254506)
(0.0140128672 -5.210044511e-18 -0.00330470726)
(0.01429650248 -3.277017802e-18 -0.001447822864)
(0.01414830362 -8.024456293e-19 -0.01121620669)
(0.006821299828 4.120128858e-19 0.0653093807)
(0.0004901903046 4.10948613e-19 -0.004401853769)
(0.0008399039968 5.250703277e-19 -0.004408013165)
(0.001316606575 -1.684526203e-17 -0.004403496197)
(0.001810646991 -2.039419272e-18 -0.004393074093)
(0.002308777779 6.732827654e-19 -0.004377792844)
(0.002806829861 5.654714488e-19 -0.004357956325)
(0.003302739162 4.451510486e-19 -0.004333674759)
(0.003795136376 1.359481827e-18 -0.004304984043)
(0.004282929611 -1.363202964e-17 -0.004271886267)
(0.004765150325 -6.633479329e-18 -0.00423437553)
(0.005240889033 1.184297368e-17 -0.004192456234)
(0.00570926774 2.023497663e-17 -0.004146156637)
(0.006169429621 8.855157057e-18 -0.00409554097)
(0.006620538218 1.49790884e-18 -0.00404072082)
(0.007061782665 1.924085382e-20 -0.003981866108)
(0.007492387217 2.635946542e-19 -0.003919215704)
(0.007911624123 4.566310768e-19 -0.003853087711)
(0.008318829238 4.756423378e-19 -0.003783889369)
(0.008713419928 4.817711917e-19 -0.003712126513)
(0.009094914873 4.755776236e-19 -0.003638412554)
(0.009462955324 4.811714593e-19 -0.003563477023)
(0.009817327365 4.701368404e-19 -0.00348817381)
(0.0101579846 4.652555887e-19 -0.003413489336)
(0.01048507051 4.797540767e-19 -0.003340550895)
(0.01079893829 4.660965747e-19 -0.0032706359)
(0.01110017055 4.768475361e-19 -0.003205191132)
(0.01138959562 4.732789143e-19 -0.00314583158)
(0.01166829116 4.766326934e-19 -0.00309436978)
(0.01193757587 4.26556469e-19 -0.003052843356)
(0.01219898349 4.068772282e-19 -0.003023549593)
(0.01245420696 4.006094993e-19 -0.003009093428)
(0.01270500784 4.060751063e-19 -0.003012440939)
(0.01295297976 1.589944876e-19 -0.00303706833)
(0.01319936037 1.481986873e-18 -0.003086230086)
(0.01344333257 -3.90322945e-18 -0.003169544982)
(0.01369151356 -5.641153447e-18 -0.003240044925)
(0.01389491178 -5.207980682e-18 -0.003675424896)
(0.01429702158 -3.236954893e-18 -0.002054956333)
(0.01394281782 -7.087476259e-19 -0.01078066985)
(0.006560103954 5.052158795e-19 0.07494116921)
(0.0004930895919 4.086646139e-19 -0.005096401399)
(0.000844851988 5.120088197e-19 -0.00510186302)
(0.001324345445 -1.685040633e-17 -0.005096140032)
(0.001821288821 -2.039138178e-18 -0.005083951742)
(0.002322376753 6.774096453e-19 -0.005066299016)
(0.002823433419 5.658154745e-19 -0.005043460525)
(0.003322394887 4.469901394e-19 -0.005015526137)
(0.003817889391 1.353507295e-18 -0.004982513267)
(0.004308817588 -1.364547112e-17 -0.004944406306)
(0.004794197588 -6.62505479e-18 -0.004901182411)
(0.005273100041 1.187800722e-17 -0.004852831532)
(0.005744620239 2.026884618e-17 -0.004799371346)
(0.006207867548 8.838593655e-18 -0.004740860985)
(0.006661964448 1.482927864e-18 -0.004677414144)
(0.007106051691 1.824137416e-20 -0.004609211821)
(0.007539297851 2.691712578e-19 -0.004536514679)
(0.007960912317 4.570943711e-19 -0.004459675019)
(0.00837016109 4.790708532e-19 -0.004379148244)
(0.00876638492 4.796372913e-19 -0.004295503752)
(0.00914901933 4.697989483e-19 -0.004209435094)
(0.009517616033 4.880368855e-19 -0.004121769417)
(0.009871865171 4.746577996e-19 -0.004033476228)
(0.01021161771 4.780945866e-19 -0.003945675603)
(0.01053690705 4.795987187e-19 -0.003859645857)
(0.0108479684 4.65801725e-19 -0.003776830279)
(0.0111452529 4.734749282e-19 -0.003698855087)
(0.0114294437 4.700632383e-19 -0.003627528306)
(0.01170145725 4.630817275e-19 -0.003564850383)
(0.01196242646 4.1412101e-19 -0.003513038568)
(0.01221367182 3.644050999e-19 -0.003474543291)
(0.01245664628 3.968223139e-19 -0.003452074116)
(0.01269284269 3.868579458e-19 -0.003448623257)
(0.01292364358 1.823293348e-19 -0.00346750242)
(0.01315027915 1.471915297e-18 -0.003511819111)
(0.0133725867 -3.933198691e-18 -0.003589023686)
(0.01360095666 -5.734438836e-18 -0.003666393195)
(0.01378444711 -5.208116142e-18 -0.004028869439)
(0.01424038509 -3.09606807e-18 -0.002791193418)
(0.01369832722 -5.618494755e-19 -0.009947508377)
(0.006318661317 5.318798361e-19 0.08424859472)
(0.0004963524877 4.062427622e-19 -0.005795301753)
(0.0008504287343 5.11404073e-19 -0.00580003817)
(0.00133308435 -1.685934022e-17 -0.005793102494)
(0.001833330555 -2.030547062e-18 -0.005779157651)
(0.002337794362 6.823820094e-19 -0.005759157763)
(0.002842289803 5.67334674e-19 -0.005733352752)
(0.003344751838 4.462885008e-19 -0.005701806992)
(0.003843805703 1.350046022e-18 -0.00566451362)
(0.004338343924 -1.36569394e-17 -0.005621433645)
(0.004827369971 -6.596827388e-18 -0.005572521175)
(0.005309932431 1.189178021e-17 -0.005517745439)
(0.005785096631 2.028707231e-17 -0.005457107064)
(0.006251933719 8.820891932e-18 -0.005390653477)
(0.006709519503 1.45930731e-18 -0.005318493786)
(0.00715693953 1.87992287e-20 -0.005240813357)
(0.007593298694 2.785022056e-19 -0.005157888002)
(0.008017734402 4.593258215e-19 -0.005070097713)
(0.008429432673 4.865793856e-19 -0.004977939765)
(0.008827646639 4.722292301e-19 -0.004882041051)
(0.009211716991 4.736624078e-19 -0.004783169454)
(0.00958109382 4.928412347e-19 -0.004682244125)
(0.009935359206 4.789408639e-19 -0.004580344661)
(0.01027424977 4.788336236e-19 -0.004478719138)
(0.01059767832 4.776629511e-19 -0.004378790916)
(0.01090575345 4.654734063e-19 -0.004282163347)
(0.01119879081 4.727155435e-19 -0.004190630382)
(0.01147732814 4.611112604e-19 -0.004106186005)
(0.01174212831 4.51570572e-19 -0.00403100645)
(0.01199416027 4.112607572e-19 -0.003967473896)
(0.01223457176 3.813706047e-19 -0.003918178435)
(0.01246464325 3.679663336e-19 -0.003885925902)
(0.01268570215 4.259291289e-19 -0.003873724537)
(0.0128989874 2.043514023e-19 -0.00388478161)
(0.01310568085 1.544133371e-18 -0.003922200308)
(0.01330559809 -4.02409186e-18 -0.003991594758)
(0.01350990156 -5.850504237e-18 -0.004076830704)
(0.013666189 -5.225342136e-18 -0.00436251581)
(0.01410844328 -2.870163935e-18 -0.003569416462)
(0.01341139564 -4.442570106e-19 -0.008832837026)
(0.006101975599 5.621815781e-19 0.09325568459)
(0.0004999770456 3.998709197e-19 -0.00649906713)
(0.0008566293644 4.992027721e-19 -0.006503057237)
(0.001342812739 -1.686920473e-17 -0.006494914635)
(0.001846754531 -2.009971286e-18 -0.006479237047)
(0.002355006509 6.87776526e-19 -0.006456928663)
(0.002863370794 5.682307276e-19 -0.006428207086)
(0.003369780921 4.481093181e-19 -0.006393106219)
(0.003872859103 1.347876298e-18 -0.00635158891)
(0.004371489363 -1.368907099e-17 -0.006303586638)
(0.004864659468 -6.577368737e-18 -0.006249023675)
(0.005351393945 1.194143073e-17 -0.006187841425)
(0.005830725054 2.030293995e-17 -0.006120016068)
(0.006301681419 8.79304827e-18 -0.006045575723)
(0.006763286615 1.441354914e-18 -0.0059646172)
(0.007214564171 2.230301769e-20 -0.005877322493)
(0.007654547243 2.861421891e-19 -0.00578397493)
(0.008082292045 4.678403798e-19 -0.005684974752)
(0.008496894351 4.848504683e-19 -0.005580853966)
(0.008897508547 4.750263496e-19 -0.005472290198)
(0.009283368735 4.820183419e-19 -0.005360119316)
(0.009653811304 4.944577798e-19 -0.005245346592)
(0.01000829828 4.797514581e-19 -0.005129156224)
(0.01034644061 4.778128065e-19 -0.005012919128)
(0.01066802043 4.664076554e-19 -0.004898198771)
(0.01097301151 4.585820638e-19 -0.004786754254)
(0.01126159282 4.660513975e-19 -0.004680542032)
(0.01153415723 4.473537099e-19 -0.004581732835)
(0.01179132057 4.405448412e-19 -0.004492678373)
(0.0120339097 4.079966101e-19 -0.00441592034)
(0.01226293547 3.842195088e-19 -0.004354189404)
(0.01247955191 3.763549054e-19 -0.004310392309)
(0.01268498159 4.288786417e-19 -0.004287566978)
(0.01288041217 2.294642166e-19 -0.00428885355)
(0.01306698519 1.543977512e-18 -0.004317387643)
(0.01324422556 -4.071558715e-18 -0.004376762845)
(0.01342273167 -5.913009639e-18 -0.004467963314)
(0.01354437308 -5.199845583e-18 -0.004669746645)
(0.01394835889 -2.759568841e-18 -0.004333480727)
(0.01312745673 -3.414949804e-19 -0.007532758108)
(0.005910536211 5.538529884e-19 0.1019929052)
(0.000503957057 3.845733201e-19 -0.007208204067)
(0.0008634424948 4.898089914e-19 -0.007211431519)
(0.001353511571 -1.687726829e-17 -0.007202098394)
(0.001861533647 -1.997928787e-18 -0.007184725615)
(0.002373979191 6.840081363e-19 -0.007160162917)
(0.002886637915 5.665048702e-19 -0.007128591469)
(0.003397442527 4.505102703e-19 -0.007090009594)
(0.003905012947 1.343104863e-18 -0.007044343416)
(0.004408224749 -1.372109199e-17 -0.00699148802)
(0.004906049222 -6.546613596e-18 -0.006931330373)
(0.005397485133 1.202096334e-17 -0.006863776051)
(0.005881528779 2.03123478e-17 -0.006788768406)
(0.006357162095 8.7610274e-18 -0.00670630759)
(0.006823350927 1.419459207e-18 -0.006616469315)
(0.007279049936 2.625175571e-20 -0.006519423402)
(0.007723212406 2.894469755e-19 -0.006415451996)
(0.00815480399 4.694955359e-19 -0.006304967176)
(0.008572819745 4.775424479e-19 -0.006188527657)
(0.008976303934 5.035423824e-19 -0.006066854315)
(0.009364372049 4.844617827e-19 -0.005940844161)
(0.009736234451 4.805748143e-19 -0.005811582452)
(0.01009122093 4.777692865e-19 -0.005680352633)
(0.01042880529 4.788844102e-19 -0.005548643894)
(0.01074862908 4.247057099e-19 -0.005418156087)
(0.01105052354 4.539324373e-19 -0.00529080127)
(0.01133452762 4.626035828e-19 -0.005168699549)
(0.01160089102 4.360342377e-19 -0.005054187927)
(0.01185008934 4.252641969e-19 -0.004949802502)
(0.01208282439 3.999766564e-19 -0.0048582481)
(0.01229999716 3.997972945e-19 -0.004782405501)
(0.01250266857 4.014246358e-19 -0.004725291284)
(0.01269199862 4.250861041e-19 -0.004690000083)
(0.01286917212 2.500675241e-19 -0.004679656779)
(0.01303539141 1.529073594e-18 -0.004697433036)
(0.01319052614 -4.079021431e-18 -0.004744925455)
(0.01334349617 -6.020810462e-18 -0.004838662823)
(0.01343418494 -5.140804522e-18 -0.004949339016)
(0.01378729806 -2.67517738e-18 -0.00505951001)
(0.01285387006 -2.394375213e-19 -0.006098742235)
(0.005737397549 5.673605002e-19 0.110486988)
(0.0005082826169 4.100805045e-19 -0.007923207719)
(0.000870850824 5.010317989e-19 -0.007925660204)
(0.0013651535 -1.68881265e-17 -0.007915163121)
(0.001877630774 -1.985989066e-18 -0.007896146902)
(0.002394667072 6.894238306e-19 -0.007869401226)
(0.002912040431 5.579580819e-19 -0.007835065962)
(0.003427684275 4.412309818e-19 -0.007793098384)
(0.003940217591 1.329159238e-18 -0.007743380892)
(0.004448508137 -1.374650983e-17 -0.007685764416)
(0.004951510422 -6.527097094e-18 -0.007620090432)
(0.005448196088 1.20379705e-17 -0.007546219694)
(0.005937522836 2.03340547e-17 -0.007464053281)
(0.006418421904 8.700745782e-18 -0.0073735536)
(0.006889795971 1.37627413e-18 -0.007274765309)
(0.007350523969 7.459423253e-21 -0.007167836089)
(0.007799471031 2.729059242e-19 -0.0070530371)
(0.008235502645 4.529040651e-19 -0.006930782782)
(0.008657502374 4.635332264e-19 -0.006801649611)
(0.009064392588 4.611991355e-19 -0.006666393461)
(0.009455157676 4.755840396e-19 -0.006525965093)
(0.009828869139 4.853662318e-19 -0.006381523372)
(0.01018471182 4.642244294e-19 -0.006234445778)
(0.0105220104 4.586301392e-19 -0.006086335842)
(0.01084025538 4.607681406e-19 -0.005939027379)
(0.01113912734 4.485450708e-19 -0.005794584452)
(0.01141851771 4.449790132e-19 -0.005655293629)
(0.01167853775 4.134104011e-19 -0.005523658014)
(0.01191952888 4.13719787e-19 -0.005402402015)
(0.01214207644 3.887678569e-19 -0.00529441127)
(0.01234698994 3.603707337e-19 -0.005202726841)
(0.01253526079 3.435217924e-19 -0.005130492434)
(0.01270802695 3.990499822e-19 -0.005080897026)
(0.01286652129 1.956770092e-19 -0.005057104615)
(0.01301207664 1.581162458e-18 -0.005062374221)
(0.01314504424 -4.171091585e-18 -0.005096692932)
(0.01327185497 -6.062877335e-18 -0.005188393923)
(0.01333585078 -5.177002094e-18 -0.005207487659)
(0.0136568192 -2.556141592e-18 -0.005746031654)
(0.01261877814 -1.800920031e-19 -0.004545968497)
(0.005580537869 6.105328907e-19 0.1187594781)
(0.0005129402245 4.075500094e-19 -0.008644556706)
(0.0008788311351 4.862961532e-19 -0.008646225678)
(0.001377702486 -1.690256788e-17 -0.008634601667)
(0.001894997775 -1.960586768e-18 -0.008614009084)
(0.002417011952 6.874944109e-19 -0.008585170994)
(0.002939513262 5.540137067e-19 -0.008548180415)
(0.003460438346 4.389385314e-19 -0.008502947457)
(0.003978407354 1.320671608e-18 -0.0084493031)
(0.004492281508 -1.378142216e-17 -0.008387045456)
(0.005000998785 -6.498484185e-18 -0.008315961437)
(0.005503502749 1.210260781e-17 -0.008235856934)
(0.00599871017 2.035846085e-17 -0.008146580149)
(0.006485497769 8.655010449e-18 -0.008048044759)
(0.006962699712 1.342397174e-18 -0.007940253161)
(0.007429112275 -1.401942108e-22 -0.007823319683)
(0.007883503989 2.696997954e-19 -0.007697493472)
(0.008324630277 4.477479382e-19 -0.007563180716)
(0.008751251988 4.637903889e-19 -0.007420965688)
(0.009162157274 4.606353264e-19 -0.007271630146)
(0.009556186266 4.695021202e-19 -0.007116170588)
(0.009932257978 4.784676859e-19 -0.006955812806)
(0.0102893987 4.62160278e-19 -0.006792023179)
(0.01062677108 4.557855702e-19 -0.006626516283)
(0.01094370302 4.688496619e-19 -0.006461258671)
(0.01123971453 4.545461224e-19 -0.006298466921)
(0.01151454155 4.426755986e-19 -0.006140597268)
(0.01176815659 4.150033235e-19 -0.005990331946)
(0.01200077233 4.073245807e-19 -0.00585058021)
(0.01221286193 3.850764531e-19 -0.005724434875)
(0.01240515169 3.604880369e-19 -0.005615108999)
(0.01257858655 3.487277072e-19 -0.00552590351)
(0.01273431473 3.961311811e-19 -0.005460145804)
(0.01287364228 2.515749718e-19 -0.005421090819)
(0.01299804943 1.622846224e-18 -0.005412147164)
(0.01310836197 -4.194549143e-18 -0.005432099984)
(0.01320996897 -6.138329442e-18 -0.005517672419)
(0.01325114555 -5.14618322e-18 -0.005449520897)
(0.01354222278 -2.454970114e-18 -0.006402509456)
(0.01240405281 -9.307019754e-20 -0.002874486494)
(0.005436067652 5.890108876e-19 0.1268283874)
(0.000517912616 4.098085822e-19 -0.009372707919)
(0.0008873538991 4.753129418e-19 -0.009373588596)
(0.001391113 -1.691727781e-17 -0.009360885958)
(0.001913574155 -1.940116491e-18 -0.009338801074)
(0.002440940859 6.859466133e-19 -0.00930798294)
(0.002968974541 5.530637274e-19 -0.00926847147)
(0.003495618534 4.401651312e-19 -0.009220122751)
(0.004019497159 1.313875422e-18 -0.009162707856)
(0.004539467091 -1.381935112e-17 -0.009095962396)
(0.005054450606 -6.464378478e-18 -0.0090196087)
(0.005563362731 1.221084221e-17 -0.008933386571)
(0.006065077315 2.036827127e-17 -0.008837079496)
(0.006558412983 8.603995847e-18 -0.008730540115)
(0.007042130103 1.31709826e-18 -0.008613716005)
(0.007514935316 -8.793634303e-21 -0.008486675551)
(0.007975491871 2.73298722e-19 -0.008349633534)
(0.008422434847 4.362623783e-19 -0.008202976016)
(0.008854390621 4.605364072e-19 -0.008047283945)
(0.009270000084 4.313565481e-19 -0.007883354886)
(0.009667945069 4.304681892e-19 -0.007712222322)
(0.01004697742 4.588111269e-19 -0.007535171844)
(0.01040595002 4.555104563e-19 -0.007353753576)
(0.01074384917 4.441639337e-19 -0.007169790388)
(0.01105982686 4.905021556e-19 -0.006985381243)
(0.01135323036 4.683876886e-19 -0.006802896641)
(0.01162363111 4.321177449e-19 -0.006624968283)
(0.01187085364 4.147519169e-19 -0.006454473174)
(0.01209498841 3.75362027e-19 -0.00629451431)
(0.01229639762 3.925578333e-19 -0.006148402459)
(0.01247573023 3.800012136e-19 -0.00601955573)
(0.01263391099 3.894229951e-19 -0.005911466161)
(0.01277211379 4.080784337e-19 -0.005827640144)
(0.01289173401 3.261066217e-19 -0.005771475423)
(0.01299438558 1.594185786e-18 -0.005746567401)
(0.01308094629 -4.206238612e-18 -0.005750638004)
(0.01315848697 -6.23304763e-18 -0.005828754509)
(0.01318153272 -5.124734947e-18 -0.005679416801)
(0.01345492639 -2.399351615e-18 -0.007035359871)
(0.01221535983 7.633544317e-20 -0.001081061763)
(0.005299420307 6.012779355e-19 0.134706509)
(0.000523178409 4.12805294e-19 -0.01010809095)
(0.0008963826239 4.786329512e-19 -0.01010818247)
(0.001405328885 -1.692570787e-17 -0.01009446198)
(0.001933285376 -1.914919389e-18 -0.01007098794)
(0.002466363758 6.895287053e-19 -0.01003832699)
(0.003000322782 5.522088026e-19 -0.009996458894)
(0.003533116969 4.439612212e-19 -0.009945178105)
(0.004063378796 1.314508445e-18 -0.009884186484)
(0.004589963223 -1.38559007e-17 -0.009813146235)
(0.005111778315 -6.418624955e-18 -0.009731704083)
(0.00562771064 1.225366405e-17 -0.009639521231)
(0.006136589561 2.040348384e-17 -0.009536303259)
(0.006637172263 8.565540459e-18 -0.009421828028)
(0.007128140141 1.279512134e-18 -0.009295974244)
(0.007608103129 -2.355882346e-21 -0.009158750264)
(0.008075610257 2.83888006e-19 -0.009010322665)
(0.008529165513 4.554317996e-19 -0.008851044103)
(0.008967248394 4.628256114e-19 -0.008681479793)
(0.009388338651 4.627424305e-19 -0.008502431898)
(0.009790944709 4.731979728e-19 -0.008314961219)
(0.01017363522 4.820577067e-19 -0.008120405398)
(0.0105350733 4.656130896e-19 -0.007920392978)
(0.01087405255 4.661815751e-19 -0.00771685259)
(0.01118953286 4.605772947e-19 -0.007512015575)
(0.01148067453 4.441888658e-19 -0.007308409403)
(0.01174687337 4.321323779e-19 -0.007108849587)
(0.01198779451 4.156040169e-19 -0.006916420873)
(0.01220339832 4.193946605e-19 -0.006734444542)
(0.01239394252 3.914324354e-19 -0.006566451683)
(0.01256000913 3.846679838e-19 -0.006416112971)
(0.01270251513 3.898196133e-19 -0.00628714742)
(0.01282267726 4.536237853e-19 -0.006183276004)
(0.0129219848 2.982496153e-19 -0.006108088721)
(0.0130022596 1.647181922e-18 -0.006065434823)
(0.01306510083 -4.283377277e-18 -0.006052210081)
(0.0131179388 -6.292797118e-18 -0.006122470961)
(0.01312085934 -5.138388666e-18 -0.00589858754)
(0.01337605762 -2.269118342e-18 -0.007651522385)
(0.01204036537 5.45207802e-20 0.0008376714988)