/*--------------------------------*- C++ -*----------------------------------*\
| =========                 |                                                 |
| \\      /  F ield         | OpenFOAM: The Open Source CFD Toolbox           |
|  \\    /   O peration     | Version:  v1912                                 |
|   \\  /    A nd           | Website:  www.openfoam.com                      |
|    \\/     M anipulation  |                                                 |
\*---------------------------------------------------------------------------*/
FoamFile
{
    version     2.0;
    format      ascii;
    class       volScalarField;
    location    "0.8";
    object      alpha.gas_0;
}
// * * * * * * * * * * * * * * * * * * * * * * * * * * * * * * * * * * * * * //

dimensions      [0 0 0 0 0 0 0];


internalField   nonuniform List<scalar> 
4800
(
4.034636866e-170
1.867203989e-170
1.296701904e-170
1.041426545e-170
8.977915085e-171
8.176414508e-171
7.728228083e-171
7.503453011e-171
7.440050447e-171
7.504134195e-171
7.671474479e-171
7.931443657e-171
7.59165954e-171
4.383519767e-167
1.126553322e-166
9.226790219e-167
4.373843728e-167
2.652036249e-166
4.946093085e-163
7.979886124e-160
8.024086427e-157
9.028236906e-154
2.531116809e-151
1.983344938e-148
1.174130605e-149
2.196893897e-136
1.026576578e-136
3.145990058e-146
1.957337118e-109
2.47596581e-107
0
5.69180043e-81
7.299266382e-80
7.341975525e-80
5.450216104e-65
7.671098758e-83
1.28462831e-52
0
5.295452758e-05
0.01056003825
9.459775252e-168
4.296939455e-168
2.969668518e-168
2.379795712e-168
2.04959984e-168
1.865015433e-168
1.761589271e-168
1.70950003e-168
1.694470912e-168
1.708655647e-168
1.746478495e-168
1.80556262e-168
1.734439835e-168
7.884751519e-165
2.254990214e-164
1.898204217e-164
9.145339288e-165
1.975881417e-164
3.194779184e-161
4.883957229e-158
3.685980689e-155
2.477202389e-152
2.869030744e-150
9.410683009e-147
1.166395307e-149
2.775781629e-135
1.620118621e-133
8.113290919e-147
0
7.408759911e-104
1.815016831e-122
7.044704285e-80
0
3.242263479e-66
9.665905113e-64
3.786373528e-82
2.715489371e-51
0
0.0001921446311
0.01518197738
1.036776639e-165
4.655035029e-166
3.203752029e-166
2.561742655e-166
2.203859455e-166
2.003203137e-166
1.890276131e-166
1.83282194e-166
1.815333188e-166
1.829235207e-166
1.868452388e-166
1.930425831e-166
1.858558366e-166
6.557646851e-163
2.104424071e-162
1.815342497e-162
8.874987166e-163
8.097335356e-163
9.480987186e-160
1.42346404e-156
8.673495846e-154
2.678664448e-151
6.776483301e-150
1.384375135e-144
2.24840918e-145
5.168876257e-151
1.509369486e-128
1.097634723e-128
1.491719015e-147
3.195598865e-100
1.841276808e-119
3.113555641e-78
0
1.963242501e-62
5.193923214e-61
5.731853085e-81
5.899775624e-49
5.165639559e-68
0.0004207650487
0.02058296261
7.245012367e-164
3.22400923e-164
2.210584725e-164
1.763762226e-164
1.515569395e-164
1.375939147e-164
1.296950698e-164
1.256277432e-164
1.243155446e-164
1.251591953e-164
1.277348267e-164
1.318644199e-164
1.27141432e-164
3.426442504e-161
1.246294723e-160
1.100574151e-160
5.461012308e-161
2.860193441e-161
1.736262997e-158
2.618693051e-155
1.39509051e-152
1.479468051e-150
7.545889652e-151
1.443473798e-141
2.137660399e-142
4.999547561e-160
2.608621664e-124
1.290118599e-124
9.856754803e-144
2.332398693e-97
0
6.291529649e-77
1.359093852e-96
9.081124782e-60
8.054567727e-59
2.007177719e-77
5.435885394e-47
7.738782359e-66
0.0007129303126
0.02562757935
3.644025296e-162
1.60926747e-162
1.099593515e-162
8.754501619e-163
7.513282687e-163
6.812421107e-163
6.413741336e-163
6.205826272e-163
6.13485232e-163
6.170659548e-163
6.291918179e-163
6.489631486e-163
6.262169348e-163
1.266504445e-159
5.280089558e-159
4.768134185e-159
2.401530961e-159
9.813596538e-160
2.182886761e-157
3.342172675e-154
1.632450169e-151
4.255092372e-150
7.552196417e-151
2.570298733e-140
5.688266782e-141
0
1.689994239e-121
5.999629194e-122
9.36128739e-141
3.326137772e-94
4.127456277e-113
6.858499611e-76
0
1.229908025e-57
4.532738229e-57
1.284698212e-75
2.3613047e-45
6.187081454e-70
0.001083778708
0.03004862543
1.407446173e-160
6.1728465e-161
4.203899269e-161
3.339796296e-161
2.862561605e-161
2.592048055e-161
2.437280555e-161
2.355524624e-161
2.326112221e-161
2.337394806e-161
2.381111825e-161
2.453744011e-161
2.368140064e-161
3.524874639e-158
1.705466635e-157
1.573016059e-157
8.041520975e-158
3.041016715e-158
1.998085983e-156
3.103888367e-153
1.412079018e-150
6.112141871e-150
7.759630527e-151
2.578309337e-140
2.377570878e-140
0
7.835041541e-120
3.328821461e-120
3.117014989e-139
3.844677704e-91
7.684697064e-110
4.39051784e-75
0
4.97154184e-56
1.100623919e-55
0
3.003763631e-44
6.266921792e-67
0.001428919549
0.03395548389
4.343537081e-159
1.892695553e-159
1.284824332e-159
1.01852122e-159
8.717859389e-160
7.882789892e-160
7.402224128e-160
7.145134492e-160
7.048137726e-160
7.075326934e-160
7.20104479e-160
7.414205261e-160
7.152364417e-160
7.666258693e-157
4.365572301e-156
4.106878939e-156
2.130416324e-156
7.945811342e-157
1.396434735e-155
2.15647525e-152
9.121302878e-150
8.527878841e-150
1.34555893e-147
1.495688895e-147
4.972119778e-137
1.01656771e-166
4.113015296e-119
1.165617802e-117
0
7.932500783e-89
0
1.660094751e-74
1.502013173e-93
5.522825686e-55
1.359878793e-54
1.240508085e-73
5.936500695e-44
6.084272257e-65
0.001805715953
0.03739796572
1.099696506e-157
4.761865647e-158
3.222100107e-158
2.54859023e-158
2.178231849e-158
1.966599776e-158
1.844096616e-158
1.777759897e-158
1.751655444e-158
1.756714576e-158
1.786355921e-158
1.837690735e-158
1.770896601e-158
1.33371872e-155
9.084632793e-155
8.702952173e-155
4.578212223e-155
1.717454969e-155
8.023386344e-155
1.138589208e-151
4.448080928e-149
3.409152571e-149
4.394077112e-147
1.351310927e-157
3.184246253e-134
5.544082693e-134
0
2.825403159e-113
4.838692514e-133
5.135984519e-87
0
4.245215162e-74
0
2.32036297e-54
7.956049962e-54
0
5.956828791e-44
3.107966371e-64
0.00235736818
0.04039675542
2.326392807e-156
1.001071301e-156
6.751498211e-157
5.327891326e-157
4.546441178e-157
4.0980544e-157
3.837018461e-157
3.694058705e-157
3.635731789e-157
3.642919461e-157
3.70136055e-157
3.804711298e-157
3.660095836e-157
1.883383713e-154
1.564388258e-153
1.523218929e-153
8.116836212e-154
3.07984744e-154
4.48477529e-154
4.595985541e-151
1.65787262e-148
1.035137012e-148
1.33211227e-146
0
4.632322131e-132
9.001555552e-132
4.568872334e-151
6.01962271e-109
1.162635862e-127
2.156996671e-85
0
1.369783812e-73
1.630532336e-92
5.555983518e-54
1.580651539e-53
8.881293552e-74
5.947829095e-44
0
0.002934499102
0.04307226441
4.166220489e-155
1.781338538e-155
1.197293776e-155
9.425214844e-156
8.028862684e-156
7.224348774e-156
6.753431315e-156
6.492934163e-156
6.383468272e-156
6.39092284e-156
6.488711273e-156
6.664954046e-156
6.396012902e-156
2.176883748e-153
2.258555986e-152
2.22938411e-152
1.201344967e-152
4.616890997e-153
3.124502344e-153
1.413562766e-150
4.801677956e-148
2.145368926e-148
6.391185406e-145
2.695078843e-159
2.335852605e-130
3.853185231e-130
1.853406281e-149
4.873719559e-105
2.215942659e-124
6.496830124e-84
1.123136242e-104
5.632828027e-73
5.53326616e-92
8.050608374e-54
1.580829207e-53
0
5.940639925e-44
0
0.003503285164
0.04549519849
6.375401493e-154
2.707772476e-154
1.813435876e-154
1.423802689e-154
1.210542451e-154
1.087177616e-154
1.014606583e-154
9.741351268e-155
9.567497303e-155
9.572443229e-155
9.712944898e-155
9.969969281e-155
9.537160689e-155
2.06598828e-152
2.762848369e-151
2.753417607e-151
1.49680287e-151
5.824982003e-152
2.781035282e-152
3.270733677e-150
1.101618889e-147
5.737155817e-148
2.720774713e-143
8.531917758e-159
4.625731982e-129
7.485680626e-129
0
4.398686221e-102
3.488853827e-121
6.865696842e-83
2.711529851e-101
6.489591341e-73
0
9.69842338e-54
1.560157768e-53
0
5.75660804e-44
2.282010857e-44
0.004055471941
0.04771386434
8.391661116e-153
3.538844551e-153
2.360890724e-153
1.84835277e-153
1.568169547e-153
1.405478014e-153
1.309364322e-153
1.255468662e-153
1.232007198e-153
1.232126837e-153
1.249642491e-153
1.281974826e-153
1.221552582e-153
1.60696005e-151
2.890829771e-150
2.889402133e-150
1.578866704e-150
6.216018851e-151
2.606228665e-151
5.588051331e-150
1.92134971e-147
1.626836604e-146
2.522145863e-142
1.500134942e-158
3.888081362e-128
7.546536661e-128
0
7.551912639e-100
1.270429919e-118
2.235647245e-82
0
6.491886911e-73
9.599223439e-93
9.657976359e-54
1.833484506e-71
5.442957554e-49
7.906642967e-46
2.274942337e-25
0.004598994343
0.04975966484
9.543970721e-152
3.993828485e-152
2.653354903e-152
2.070904293e-152
1.752889981e-152
1.567608575e-152
1.457794538e-152
1.396097909e-152
1.369166857e-152
1.369178843e-152
1.388373184e-152
1.423924915e-152
1.351139697e-152
1.016533881e-150
2.604612535e-149
2.589445902e-149
1.414040533e-149
5.626021203e-150
2.300199276e-150
7.071847018e-150
5.769496029e-150
3.043773072e-141
7.273775188e-141
5.626029476e-158
1.639316663e-127
3.787934822e-127
0
4.6870386e-98
5.74176313e-117
2.259908036e-82
0
6.477722039e-73
0
9.644567256e-54
4.417589707e-73
1.760313786e-47
5.272767708e-68
1.545518853e-06
0.005137150252
0.05165394962
9.406484546e-151
3.903097024e-151
2.581480859e-151
2.008117498e-151
1.695476632e-151
1.512826112e-151
1.404368745e-151
1.343606245e-151
1.317373896e-151
1.317933739e-151
1.336906899e-151
1.372166785e-151
1.29808677e-151
5.147315448e-150
2.007795171e-148
1.982253332e-148
1.074547453e-148
4.317338073e-149
1.87919704e-149
8.041445274e-150
5.539884987e-150
3.717317919e-136
1.964061468e-135
2.095033424e-153
6.740833395e-127
1.068733288e-126
6.188753563e-146
1.897697895e-96
0
2.259711917e-82
0
6.48312566e-73
0
9.160403135e-54
0
2.959860871e-47
3.828970063e-66
5.728425436e-06
0.005669892407
0.05341349969
8.048433282e-150
3.308625152e-150
2.177936385e-150
1.688297206e-150
1.421721579e-150
1.265695105e-150
1.173048491e-150
1.121632539e-150
1.100153177e-150
1.102092901e-150
1.12005533e-150
1.153897974e-150
1.094071514e-150
2.024344403e-149
1.270273458e-147
1.273102745e-147
6.927945489e-148
2.796733446e-148
1.417791645e-148
1.799708066e-149
5.547849435e-150
3.464127966e-132
3.643065425e-133
0
2.711482553e-126
1.01085855e-124
0
4.459870938e-95
0
2.257393904e-82
2.368513135e-103
6.466995639e-73
0
6.812296679e-54
0
2.96352463e-47
0
1.240805898e-05
0.006200417085
0.05505299562
5.984074262e-149
2.435007093e-149
1.595044801e-149
1.232083054e-149
1.034860395e-149
9.19374459e-150
8.510168543e-150
8.138475171e-150
7.995503261e-150
8.037849039e-150
8.218210201e-150
8.564787445e-150
8.270529457e-150
5.798407364e-149
6.106560827e-147
6.52159189e-147
3.928071874e-147
1.520515742e-147
9.356423688e-148
7.871945757e-149
1.611439685e-146
6.777539083e-130
3.596892861e-133
7.205939056e-127
8.153367628e-142
8.905752045e-120
2.647083885e-139
3.302961528e-94
0
2.254704541e-82
3.300500586e-101
5.996226708e-73
0
3.234905828e-54
1.698999445e-73
2.964078973e-47
3.414318949e-68
2.115413241e-05
0.006732224457
0.05658603758
3.86732619e-148
1.556184934e-148
1.014417598e-148
7.809227997e-149
6.544137005e-149
5.805098544e-149
5.371903451e-149
5.146805295e-149
5.081085624e-149
5.15746036e-149
5.359408685e-149
5.751880348e-149
5.898920038e-149
9.92135376e-149
2.755427903e-146
2.828715468e-146
2.366576198e-146
6.933353464e-147
4.739915083e-147
0
4.6116491e-130
5.650295545e-129
1.163375269e-126
2.668455989e-123
8.67166567e-142
7.911867342e-115
0
5.55565751e-94
3.836843036e-113
2.247439046e-82
0
4.020704347e-73
4.953877243e-92
7.72439164e-55
2.159123889e-73
2.311914878e-47
2.31028014e-68
3.155434525e-05
0.0072648693
0.0580248556
2.17073627e-147
8.627816906e-148
5.598519262e-148
4.297842288e-148
3.596856159e-148
3.190727088e-148
2.958717762e-148
2.854317689e-148
2.862303511e-148
2.979472922e-148
3.20262521e-148
3.693599557e-148
4.363427516e-148
8.83025992e-151
4.740743736e-142
1.194015556e-142
2.926793511e-144
2.649716685e-146
1.823014157e-146
9.125621117e-165
1.465958398e-126
5.674684715e-129
1.115525017e-121
1.059810887e-121
3.795570862e-131
7.399747981e-111
7.129733136e-130
5.559192341e-94
0
1.883542461e-82
3.602801917e-101
1.511654334e-73
0
6.811286851e-56
8.465229691e-75
9.505890994e-48
5.903900938e-68
4.332614071e-05
0.007797052808
0.05937955227
1.055830205e-146
4.142087046e-147
2.679410632e-147
2.055241495e-147
1.721937195e-147
1.532294543e-147
1.43365071e-147
1.423118119e-147
1.496508669e-147
1.628117424e-147
1.836876395e-147
2.640919273e-147
3.555644981e-147
2.104790998e-153
7.171902104e-138
1.528010907e-138
2.670791911e-140
2.884903077e-143
1.304893715e-143
3.476717871e-162
1.59100039e-124
5.729019591e-129
8.369604609e-119
1.063708924e-121
8.612908489e-112
1.676866642e-108
8.060623569e-127
5.551379604e-94
1.48133777e-113
1.10844943e-82
0
2.397988061e-74
0
1.550404627e-57
0
1.449951748e-48
3.353873014e-67
5.643099075e-05
0.008328268438
0.06065843046
4.473884775e-146
1.737053101e-146
1.124463889e-146
8.643672988e-147
7.265425379e-147
6.531785156e-147
6.433018621e-147
7.202523155e-147
8.074628978e-147
8.762146051e-147
1.145299671e-146
2.90335911e-146
2.70261372e-146
1.742174366e-153
5.368094833e-135
1.040505483e-135
1.542521066e-137
2.14368171e-140
8.866477463e-141
5.049157215e-153
1.030930246e-123
4.246743227e-122
1.369380395e-117
1.137341707e-121
1.301905354e-108
1.42630956e-107
1.234659266e-116
5.544381134e-94
0
4.661971001e-83
0
1.114765613e-75
6.978440012e-95
6.415170881e-60
1.243064549e-79
5.523198992e-50
1.920652222e-73
7.094961711e-05
0.008857702238
0.06187027051
1.777229426e-145
6.788737095e-146
4.369990352e-146
3.335360891e-146
2.822979739e-146
2.794393708e-146
3.843973647e-146
5.087052101e-146
4.765975168e-146
4.848886902e-146
1.859143787e-145
3.164371236e-144
7.799888619e-143
1.839810477e-153
3.406699164e-133
6.953250803e-134
1.386404576e-135
8.903378428e-137
5.530239669e-136
2.241860842e-134
4.48804895e-142
2.324140178e-119
5.278321328e-134
2.058400457e-110
2.067102611e-107
1.432908662e-107
9.506700991e-97
5.536827768e-94
1.954576032e-95
5.962770269e-102
5.876483333e-80
3.364266124e-78
0
3.35329369e-63
2.643645919e-75
3.522127392e-52
0
8.680993589e-05
0.009385027849
0.06302393621
8.485675075e-145
2.922926232e-145
1.791183416e-145
1.375201323e-145
1.503855201e-145
3.179912963e-145
1.286167251e-144
7.725918938e-144
6.299927143e-143
7.183345049e-142
1.143550206e-140
2.38864074e-139
6.027416529e-138
2.493729194e-146
4.390685604e-132
1.279724174e-132
8.13650004e-133
6.756986293e-132
4.69797269e-131
1.078469706e-129
1.762760075e-144
2.072731692e-115
5.797895975e-120
1.510965481e-106
2.067961749e-114
2.497328406e-96
2.354608144e-95
5.181251853e-94
1.063427108e-94
6.113684276e-110
4.498563918e-76
1.833638128e-89
5.232745056e-67
2.658457937e-84
1.052499596e-56
2.899296471e-55
4.621120246e-80
0.0001039864891
0.009910251866
0.0641273443
3.858418001e-142
4.217550317e-142
6.512730537e-142
1.395787113e-141
4.052282269e-141
1.538722206e-140
7.460357985e-140
4.660251297e-139
3.927432186e-138
4.677814542e-137
7.806587602e-136
1.704841087e-134
4.391873188e-133
1.192553479e-131
3.060989275e-130
4.92707438e-129
5.805035764e-128
5.08063338e-127
3.575856758e-126
2.010366074e-125
0
6.661858716e-113
4.551406807e-115
1.044061948e-104
0
4.511485712e-93
2.373114803e-95
1.86338388e-90
2.959838405e-91
0
1.325333393e-73
2.355400361e-78
5.255741626e-67
1.089568409e-69
1.057712546e-56
9.330767108e-57
4.073100352e-78
0.0001231163207
0.01043340218
0.06518740261
2.321297394e-137
2.510606123e-137
3.812532823e-137
8.020769599e-137
2.289333071e-136
8.601000851e-136
4.173368829e-135
2.650478359e-134
2.310544819e-133
2.878003461e-132
5.03971538e-131
1.149841519e-129
3.073597695e-128
8.603745738e-127
2.070454268e-125
3.560483049e-124
4.155504608e-123
3.587444726e-122
2.478277861e-121
1.266974713e-120
3.368092849e-140
1.328679419e-111
8.955458579e-114
0
9.664666664e-100
1.171268283e-91
2.54328812e-95
8.140199226e-86
1.291746929e-86
1.060575457e-105
2.732886609e-72
1.358198065e-89
2.396790453e-67
3.22254628e-87
7.061681941e-57
3.056824003e-57
9.504382423e-79
0.0001441577533
0.01095483845
0.06620931358
1.323735977e-132
1.415080662e-132
2.107959677e-132
4.340122854e-132
1.215572227e-131
4.517729003e-131
2.196689794e-130
1.421747928e-129
1.285036922e-128
1.675904578e-127
3.081787518e-126
7.339071757e-125
2.034863417e-123
5.837078245e-122
1.419249178e-120
2.42880776e-119
2.799104164e-118
2.382222469e-117
1.611709895e-116
7.889853356e-116
0
3.224663557e-111
1.78822548e-110
0
6.136958958e-98
0
1.054400123e-84
5.768200093e-82
1.11038486e-82
0
7.662215538e-72
1.256777221e-70
2.630250835e-68
2.823794405e-87
1.399294517e-57
4.913630796e-58
9.088486633e-79
0.0001668235643
0.01147406461
0.06719522019
7.107773716e-128
7.510544585e-128
1.096864803e-127
2.208315977e-127
6.06748721e-127
2.23243103e-126
1.089785052e-125
7.206957522e-125
6.76835117e-124
9.252572408e-123
1.787487232e-121
4.438328634e-120
1.275442992e-118
3.743416295e-117
9.188649542e-116
1.561664683e-114
1.775544003e-113
1.488889041e-112
9.851164002e-112
4.609210436e-111
1.368779402e-110
3.241258575e-111
1.077795802e-105
4.314421507e-125
5.421608968e-93
5.52774329e-112
1.468208936e-79
2.789617149e-79
5.892503419e-80
9.367456287e-82
1.74726522e-91
5.878844229e-66
4.904522918e-66
0
6.177575509e-58
4.176350173e-58
5.0449181e-77
0.0001911580419
0.01199022429
0.06814410739
3.5834092e-123
3.744345374e-123
5.363515418e-123
1.056298424e-122
2.849108675e-122
1.039209741e-121
5.104573851e-121
3.458870997e-120
3.38158851e-119
4.851106805e-118
9.844502161e-117
2.546031572e-115
7.573870441e-114
2.271808163e-112
5.622313589e-111
9.468505382e-110
1.061408157e-108
8.764036593e-108
5.661007231e-107
2.55271119e-106
7.269461336e-106
3.621779411e-106
2.314918123e-102
6.003934621e-121
4.68527514e-89
0
6.795646995e-76
4.405720566e-77
4.982306014e-78
3.899862192e-79
1.75750896e-93
3.079892768e-62
1.799310492e-62
0
4.859075159e-56
1.565144031e-56
1.408602052e-76
0.0002180895496
0.01250145459
0.06905547166
1.69423427e-118
1.751743351e-118
2.463672387e-118
4.751508696e-118
1.259823709e-117
4.563712536e-117
2.26150222e-116
1.574544315e-115
1.605022385e-114
2.419071879e-113
5.152431919e-112
1.386839468e-110
4.262998761e-109
1.306041173e-107
3.252171501e-106
5.415492643e-105
5.983659531e-104
4.860608031e-103
3.05883857e-102
1.327056605e-101
3.637166992e-101
1.017605065e-100
1.340198806e-99
0
1.365732844e-86
0
6.724615907e-74
1.450013872e-74
3.850222438e-74
1.238164562e-74
2.18838131e-93
9.271110094e-60
4.480360655e-60
5.31750141e-78
8.258207314e-55
2.213456224e-55
3.29238921e-74
0.000246563248
0.01300810485
0.06993142917
7.509445469e-114
7.688777935e-114
1.063213634e-113
2.011315154e-113
5.251686807e-113
1.8935513e-112
9.493790648e-112
6.810022463e-111
7.247431345e-110
1.148889735e-108
2.564369674e-107
7.179468821e-106
2.275248439e-104
7.119039478e-103
1.77836654e-101
2.923025648e-100
3.18299967e-99
2.540334823e-98
1.553847042e-97
6.474447749e-97
1.739589166e-96
5.342309009e-96
4.142352072e-95
2.706863695e-114
2.403668151e-85
7.223082916e-103
2.482511502e-73
7.00119674e-70
1.336465284e-69
4.331914026e-70
0
2.202972138e-58
1.090096897e-58
2.527513083e-59
1.037911558e-54
7.982893138e-55
0
0.0002762803637
0.01351005775
0.07077467073
3.120456876e-109
3.166618378e-109
4.312637734e-109
8.018286707e-109
2.066336874e-108
7.434761983e-108
3.783395187e-107
2.802782569e-106
3.117755685e-105
5.202483827e-104
1.214382918e-102
3.534582721e-101
1.152031999e-99
3.681698478e-98
9.191071795e-97
1.489621116e-95
1.598341095e-94
1.250990411e-93
7.418103291e-93
2.963794302e-92
7.860449088e-92
2.659667464e-91
2.356026159e-90
0
5.3937387e-85
1.825976446e-84
6.320130646e-92
5.637002717e-65
4.209958112e-65
1.340775302e-65
3.111155345e-81
4.970223674e-58
3.888647302e-58
1.468800257e-57
9.421589044e-55
1.698274729e-52
0
0.0003069365659
0.01400757357
0.07158841609
1.215925205e-104
1.224103454e-104
1.645071478e-104
3.013159403e-104
7.683833722e-104
2.767053339e-103
1.433875596e-102
1.099230285e-101
1.279603225e-100
2.247919223e-99
5.475425639e-98
1.655351181e-96
5.537538085e-95
1.806913725e-93
4.488448921e-92
7.171537562e-91
7.577577566e-90
5.802512943e-89
3.326575884e-88
1.27257174e-87
3.358492752e-87
1.278317653e-86
1.22837484e-85
1.017379848e-84
8.158759223e-104
4.025300728e-80
5.615833288e-99
3.039722344e-60
6.339341164e-61
1.644540907e-61
1.158938781e-65
4.955714172e-58
3.892422603e-58
4.795486064e-55
4.793596987e-55
7.436665421e-49
1.010893181e-68
0.0003380774571
0.01450072414
0.07237663034
4.444476102e-100
4.443183671e-100
5.904887733e-100
1.068370463e-99
2.704201163e-99
9.779243975e-99
5.177112436e-98
4.113469801e-97
5.017722136e-96
9.271801293e-95
2.352329825e-93
7.374193029e-92
2.529266311e-90
8.413149797e-89
2.070901717e-87
3.263529235e-86
3.391079817e-85
2.533563695e-84
1.400528175e-83
5.123909249e-83
1.359245665e-82
5.930805825e-82
6.151159707e-81
4.713365203e-80
3.07755922e-93
5.36541931e-76
0
4.246096693e-57
6.522564307e-58
1.556308455e-58
1.04703977e-59
1.436129192e-58
5.323380127e-56
9.626731982e-54
4.832978092e-55
5.529837444e-46
7.484089007e-68
0.0003695843673
0.01498944544
0.07314246683
1.524566291e-95
1.51504937e-95
1.995827799e-95
3.578076386e-95
9.021130872e-95
3.288137318e-94
1.78365503e-93
1.470592383e-92
1.882444636e-91
3.650954142e-90
9.637388569e-89
3.123625723e-87
1.098975488e-85
3.713239039e-84
9.02884699e-83
1.404370526e-81
1.431707221e-80
1.04070122e-79
5.533153372e-79
1.934681053e-78
5.223765317e-78
2.655026511e-77
2.911432837e-76
2.057420302e-75
4.722853067e-75
1.974152283e-72
0
2.173017585e-55
9.460983303e-56
2.881672266e-56
2.350182441e-57
1.441398483e-58
2.382658978e-54
7.759758398e-53
4.793596987e-55
9.591259753e-44
2.09738757e-68
0.0004002467439
0.01547305112
0.07388542126
4.910564482e-91
4.855881328e-91
6.357301879e-91
1.133311616e-90
2.857621307e-90
1.053882807e-89
5.872232634e-89
5.029318898e-88
6.763938282e-87
1.372451164e-85
3.768095886e-84
1.257637493e-82
4.547341805e-81
1.551683527e-79
3.721795525e-78
5.715098145e-77
5.697863081e-76
4.01940571e-75
2.05069531e-74
6.853127643e-74
1.912784906e-73
1.144824073e-72
1.300069045e-71
8.659290271e-71
3.329107799e-70
2.750282337e-69
0
7.291961545e-55
6.371852539e-52
9.641443958e-53
1.224452945e-54
2.190332266e-57
1.609511664e-53
3.824693446e-52
4.832978092e-55
5.359497548e-42
2.669627111e-63
0.0004345445001
0.01594565704
0.07460152673
1.486322285e-86
1.464028761e-86
1.91029742e-86
3.399941865e-86
8.612299457e-86
3.225927539e-85
1.849738106e-84
1.647731896e-83
2.329279346e-82
4.925773748e-81
1.406528796e-79
4.812461157e-78
1.792920327e-76
6.131574118e-75
1.451742301e-73
2.198424374e-72
2.135451878e-71
1.459173518e-70
7.128881932e-70
2.279631753e-69
6.701277908e-69
4.738463063e-68
5.47175243e-67
3.512993334e-66
1.398242882e-65
4.203623844e-65
4.192519496e-65
0
4.845746098e-47
6.6821339e-48
6.059006949e-50
8.62484701e-53
4.605296418e-53
4.216662826e-51
4.872359038e-55
1.227186514e-40
0
0.0004699855437
0.01640625168
0.07528956294
4.232026845e-82
4.156397844e-82
5.42212264e-82
9.678251136e-82
2.474692895e-81
9.446934355e-81
5.58134349e-80
5.179755591e-79
7.688042112e-78
1.688596888e-76
5.011070382e-75
1.75120431e-73
6.733921291e-72
2.289197242e-70
5.363367737e-69
7.985025255e-68
7.530550946e-67
4.979379596e-66
2.324586619e-65
7.132434144e-65
2.25622795e-64
1.874126134e-63
2.170927592e-62
1.355240262e-61
5.485260334e-61
1.592290671e-60
1.715554428e-60
3.103752036e-74
3.419548082e-42
4.220256508e-43
3.05159492e-45
2.469173149e-48
2.393848808e-50
4.875830478e-49
4.911739834e-55
1.320297666e-39
4.396394084e-61
0.0005044101279
0.0168558908
0.07595035676
1.135130183e-77
1.112667965e-77
1.456099048e-77
2.619626283e-77
6.794290995e-77
2.650628401e-76
1.615211695e-75
1.564777114e-74
2.430898916e-73
5.533842613e-72
1.702316177e-70
6.068275171e-69
2.405720295e-67
8.074215606e-66
1.877764158e-64
2.734166485e-63
2.497792847e-62
1.597765945e-61
7.110404989e-61
2.103581245e-60
7.32712138e-60
7.050039983e-59
8.127205986e-58
4.976843939e-57
2.05065395e-56
5.744729141e-56
6.801983511e-56
0
5.85278155e-38
6.879273009e-39
5.496282862e-41
4.369394703e-44
2.76668958e-46
3.539895419e-47
4.90982945e-55
7.232884402e-39
0
0.0005371528314
0.01729452963
0.07658515059
2.873330563e-73
2.813617622e-73
3.707153356e-73
6.757913482e-73
1.785908578e-72
7.134650028e-72
4.489933018e-71
4.548231949e-70
7.357497472e-69
1.735698045e-67
5.505697047e-66
2.006521946e-64
8.154285414e-63
2.693001513e-61
6.228659346e-60
8.810179071e-59
7.79495565e-58
4.822864151e-57
2.039823278e-56
5.86304712e-56
2.298892126e-55
2.513056981e-54
2.875602749e-53
1.741085503e-52
7.283541134e-52
1.955345763e-51
2.707716148e-51
0
3.174398683e-35
4.277032285e-36
5.477599709e-38
7.717941794e-41
3.886761417e-43
4.073466909e-45
4.949960074e-55
2.300002124e-38
3.543604162e-59
0.0005672546881
0.01772196221
0.07719562275
6.878914783e-69
6.735380479e-69
8.968728496e-69
1.665537833e-68
4.501957997e-68
1.844474665e-67
1.201129925e-66
1.27256775e-65
2.13026797e-64
5.215513775e-63
1.692681126e-61
6.344346463e-60
2.614120578e-58
8.509808082e-57
1.954735603e-55
2.667755088e-54
2.291129761e-53
1.369590371e-52
5.484595357e-52
1.548036117e-51
6.95930542e-51
8.473477533e-50
9.632673238e-49
5.79851023e-48
2.448059163e-47
6.3493451e-47
1.040381051e-46
0
9.098124898e-34
2.610584908e-34
1.069962352e-35
5.382955906e-38
2.446880798e-40
2.381264236e-42
4.909812082e-55
3.768732058e-38
0
0.0005944693106
0.01813790606
0.07778396189
1.561460638e-64
1.530175017e-64
2.067006776e-64
3.930234753e-64
1.089787713e-63
4.586282978e-63
3.098913055e-62
3.425410192e-61
5.900825085e-60
1.5017066e-58
4.943130476e-57
1.920425644e-55
7.903566817e-54
2.553586815e-52
5.788565619e-51
7.588608005e-50
6.351642375e-49
3.656176689e-48
1.380142442e-47
3.879046043e-47
2.024045422e-46
2.704392348e-45
3.057662614e-44
1.834140072e-43
7.764561021e-43
1.986232464e-42
3.755436979e-42
0
2.703986303e-33
1.208937479e-31
3.080587396e-32
9.765878233e-34
4.161914887e-36
3.656393555e-38
6.203944274e-40
3.978952904e-38
2.039838869e-61
0.000616828738
0.01854126969
0.07835317322
3.36937918e-60
3.307785757e-60
4.548917008e-60
8.895564768e-60
2.536062296e-59
1.099022214e-58
7.72579849e-58
8.856147563e-57
1.565514007e-55
4.138521985e-54
1.37240001e-52
5.560646391e-51
2.250347943e-49
7.288947934e-48
1.611730592e-46
2.030510456e-45
1.662565015e-44
9.155218412e-44
3.242851384e-43
9.232666641e-43
5.62126666e-42
8.192911888e-41
9.191604458e-40
5.489842207e-39
2.324750921e-38
6.014318811e-38
1.270769885e-37
1.539534077e-37
0
6.26710077e-27
1.565399796e-27
4.535355935e-29
1.510593525e-31
8.049575109e-34
2.227125582e-35
3.492846814e-37
0
0.0006345408835
0.01892961118
0.07890656449
6.928722916e-56
6.820511564e-56
9.578467975e-56
1.933660983e-55
5.681167183e-55
2.545162914e-54
1.863117401e-53
2.194752807e-52
3.98630175e-51
1.088747008e-49
3.633480931e-48
1.535117577e-46
6.040483005e-45
1.978940176e-43
4.203968605e-42
5.126178833e-41
4.107367589e-40
2.14216819e-39
7.092899931e-39
2.086884766e-38
1.482062693e-37
2.363754301e-36
2.610497344e-35
1.548018734e-34
6.60414049e-34
1.765670835e-33
4.122866072e-33
5.3047568e-33
2.1902716e-51
8.259169857e-23
2.585366323e-23
1.086104208e-24
4.754935009e-27
1.306194003e-29
2.846852261e-31
4.05375933e-33
5.003355004e-54
0.0006494638935
0.01929888907
0.07944605316
1.360807825e-51
1.344233578e-51
1.932615184e-51
4.041279055e-51
1.227825332e-50
5.71493498e-50
4.343448247e-49
5.205842501e-48
9.76436223e-47
2.72408141e-45
9.216639596e-44
4.018657363e-42
1.535017157e-40
5.097156613e-39
1.024851492e-37
1.225661055e-36
9.551375761e-36
4.658481713e-35
1.439126019e-34
4.474659807e-34
3.699140106e-33
6.503154088e-32
6.978596494e-31
4.095263961e-30
1.797589513e-29
5.026667999e-29
1.269672554e-28
1.664912031e-28
1.263180725e-46
4.627977194e-20
1.877054724e-20
1.30208777e-21
1.205770282e-23
4.152705455e-26
4.747064832e-28
4.787699184e-30
0
0.0006608869578
0.01964685887
0.07997229525
2.55784933e-47
2.536546295e-47
3.740807343e-47
8.133967995e-47
2.569339783e-46
1.247792861e-45
9.763526112e-45
1.182221186e-43
2.303606805e-42
6.45914674e-41
2.250263482e-39
9.910510245e-38
3.71739939e-36
1.23920804e-34
2.337610242e-33
2.782091268e-32
2.079558637e-31
9.353864509e-31
2.699213284e-30
9.08542872e-30
8.769749948e-29
1.7010914e-27
1.748494154e-26
1.014720832e-25
4.739854116e-25
1.383132653e-24
3.660621861e-24
5.034824691e-24
0
2.058042967e-18
1.215909214e-18
1.865131245e-19
5.639642059e-21
5.067501005e-23
3.565306817e-25
1.819149581e-27
0
0.000662062438
0.01997295574
0.08048470125
4.613103576e-43
4.591052163e-43
6.957726865e-43
1.581667475e-42
5.231269967e-42
2.652185497e-41
2.107571587e-40
2.578079614e-39
5.228686601e-38
1.449268873e-36
5.297543529e-35
2.28820422e-33
8.633191924e-32
2.824561392e-30
5.020901712e-29
5.985828352e-28
4.207316456e-27
1.721583848e-26
4.665531668e-26
1.742895094e-25
1.996944885e-24
4.199447692e-23
4.089298653e-22
2.368534872e-21
1.217275646e-20
3.652716825e-20
9.788949199e-20
1.451192981e-19
5.811536986e-21
1.927915282e-17
2.720415151e-17
1.715391279e-16
4.610965316e-17
6.815596386e-18
4.307117028e-19
4.800191475e-21
0
0.0006557986561
0.0202739525
0.08098160713
8.015963243e-39
7.994924802e-39
1.247722375e-38
2.987736189e-38
1.041419973e-37
5.478256592e-37
4.350879164e-36
5.426969672e-35
1.137385983e-33
3.08679254e-32
1.198631389e-30
4.926607156e-29
1.926141828e-27
5.992087725e-26
1.027144869e-24
1.21284132e-23
7.841323661e-23
2.882861527e-22
7.416044285e-22
3.151817776e-21
4.428406509e-20
9.686071428e-19
8.901848501e-18
5.361028591e-17
3.039753269e-16
9.214272293e-16
2.416864406e-15
1.529910931e-15
1.463439462e-16
1.722550319e-15
4.203781626e-13
8.169733539e-12
2.552618394e-12
5.066410813e-13
4.168398513e-14
5.761277515e-16
0
0.0006559056359
0.02054779386
0.08145903115
1.351264083e-34
1.34716743e-34
2.171160593e-34
5.523246116e-34
2.032661151e-33
1.094363354e-32
8.57707081e-32
1.108589808e-30
2.356813512e-29
6.300924171e-28
2.584945411e-26
9.91715686e-25
4.107432007e-23
1.175364576e-21
2.020362212e-20
2.290220494e-19
1.334717622e-18
4.364096351e-18
1.084350334e-17
5.369343563e-17
9.624077026e-16
2.071238048e-14
1.804983466e-13
1.021021011e-12
3.075238026e-12
4.980050971e-12
5.101860417e-12
1.202445232e-12
1.202033422e-13
7.631186163e-11
5.153807759e-09