/*--------------------------------*- C++ -*----------------------------------*\
| =========                 |                                                 |
| \\      /  F ield         | OpenFOAM: The Open Source CFD Toolbox           |
|  \\    /   O peration     | Version:  v1912                                 |
|   \\  /    A nd           | Website:  www.openfoam.com                      |
|    \\/     M anipulation  |                                                 |
\*---------------------------------------------------------------------------*/
FoamFile
{
    version     2.0;
    format      ascii;
    class       volScalarField;
    location    "0.8";
    object      alphat.gas;
}
// * * * * * * * * * * * * * * * * * * * * * * * * * * * * * * * * * * * * * //

dimensions      [1 -1 -1 0 0 0 0];


internalField   nonuniform List<scalar> 
4800
(
2.616839712e-08
5.301823776e-08
7.325737374e-08
9.04738762e-08
1.060120019e-07
1.205574038e-07
1.345436094e-07
1.482800256e-07
1.620056133e-07
1.759153175e-07
1.901744417e-07
2.04927098e-07
2.203014989e-07
2.364134855e-07
2.533690573e-07
2.712663547e-07
2.901973819e-07
3.10249666e-07
3.315079939e-07
3.540563404e-07
3.779800794e-07
4.033685628e-07
4.303181501e-07
4.589357833e-07
4.893432419e-07
5.216822205e-07
5.561204415e-07
5.928591652e-07
6.321429916e-07
6.742702682e-07
7.196192007e-07
7.686325065e-07
8.219017801e-07
8.809302796e-07
9.407536912e-07
1.032787956e-06
1.052219225e-06
1.277847664e-06
1.003530676e-06
1.911110608e-06
4.131848812e-08
8.445268533e-08
1.172282509e-07
1.449586721e-07
1.695386487e-07
1.918818929e-07
2.125226448e-07
2.318077006e-07
2.499781016e-07
2.672098888e-07
2.836365991e-07
2.993626538e-07
3.144718019e-07
3.290327027e-07
3.431027654e-07
3.567308818e-07
3.699594288e-07
3.828257785e-07
3.953634652e-07
4.076031105e-07
4.195731759e-07
4.313005932e-07
4.428113063e-07
4.541307575e-07
4.652843369e-07
4.762978148e-07
4.871977821e-07
4.980120148e-07
5.087706089e-07
5.195005414e-07
5.302674817e-07
5.409182488e-07
5.52436033e-07
5.608028733e-07
5.807190988e-07
5.647042821e-07
6.483608458e-07
4.790663793e-07
1.146023548e-06
2.790459588e-06
4.021130294e-08
8.214614436e-08
1.140068649e-07
1.409672069e-07
1.648729475e-07
1.866132966e-07
2.067076685e-07
2.254929395e-07
2.432029951e-07
2.600083971e-07
2.760382478e-07
2.913931733e-07
3.061534893e-07
3.203845782e-07
3.341405647e-07
3.474669088e-07
3.604022848e-07
3.729799735e-07
3.852289164e-07
3.971745278e-07
4.088393319e-07
4.202434714e-07
4.314051221e-07
4.423408392e-07
4.530658567e-07
4.635943601e-07
4.739397486e-07
4.841148792e-07
4.941326709e-07
5.040039901e-07
5.137574489e-07
5.233072308e-07
5.33269466e-07
5.405103226e-07
5.59690825e-07
5.301316663e-07
6.589705618e-07
2.782117869e-07
1.230367872e-06
3.196564929e-06
4.029471177e-08
8.233080485e-08
1.142711325e-07
1.412986373e-07
1.652630533e-07
1.870556401e-07
2.071970964e-07
2.260251736e-07
2.437743898e-07
2.606157812e-07
2.766788185e-07
2.920644221e-07
3.068531501e-07
3.211105908e-07
3.348910491e-07
3.482401494e-07
3.611967205e-07
3.737941946e-07
3.86061666e-07
3.980247077e-07
4.097060126e-07
4.211259062e-07
4.323027646e-07
4.432533653e-07
4.539931911e-07
4.645367107e-07
4.748976427e-07
4.850892313e-07
4.951245796e-07
5.05016998e-07
5.147807611e-07
5.24425807e-07
5.340457957e-07
5.429051227e-07
5.566912341e-07
5.415460035e-07
6.497950324e-07
2.578947205e-07
1.596124075e-06
3.509010341e-06
4.027925103e-08
8.229687697e-08
1.142232518e-07
1.412389395e-07
1.651930525e-07
1.869764844e-07
2.071097084e-07
2.259303217e-07
2.436727328e-07
2.605078923e-07
2.765652e-07
2.919455153e-07
3.067293403e-07
3.209822093e-07
3.347583741e-07
3.481034038e-07
3.610560691e-07
3.736497401e-07
3.85913443e-07
3.978726759e-07
4.09550047e-07
4.209657855e-07
4.321381551e-07
4.430837986e-07
4.538180323e-07
4.643551133e-07
4.747084821e-07
4.848910147e-07
4.949151407e-07
5.047942786e-07
5.145357486e-07
5.24178391e-07
5.336714261e-07
5.428365682e-07
5.552111673e-07
5.466962033e-07
6.196209372e-07
3.884660429e-07
1.435506858e-06
3.779856764e-06
4.027217631e-08
8.228271235e-08
1.142044055e-07
1.412161739e-07
1.651669196e-07
1.869473928e-07
2.070779824e-07
2.258962307e-07
2.436365066e-07
2.604697278e-07
2.765252644e-07
2.919039462e-07
3.06686245e-07
3.209376624e-07
3.347124144e-07
3.480560313e-07
3.610072411e-07
3.735993667e-07
3.858613828e-07
3.978187299e-07
4.094939527e-07
4.209072081e-07
4.320766763e-07
4.430189012e-07
4.537490764e-07
4.642813009e-07
4.746288109e-07
4.84804202e-07
4.948194688e-07
5.046877221e-07
5.144129731e-07
5.240502202e-07
5.334398488e-07
5.429810334e-07
5.533509309e-07
5.527026424e-07
6.049246373e-07
5.672083672e-07
1.166797967e-06
4.038148986e-06
4.026428082e-08
8.226651865e-08
1.141826369e-07
1.41189726e-07
1.651364515e-07
1.869133992e-07
2.070408595e-07
2.258563102e-07
2.435940722e-07
2.604250238e-07
2.764784986e-07
2.918552907e-07
3.066358345e-07
3.20885592e-07
3.346587358e-07
3.480007484e-07
3.609503058e-07
3.735406733e-07
3.858007625e-07
3.977559446e-07
4.094286875e-07
4.208390617e-07
4.320051499e-07
4.429433826e-07
4.536688183e-07
4.641953859e-07
4.745361108e-07
4.847033072e-07
4.947086417e-07
5.045645881e-07
5.142730638e-07
5.2391314e-07
5.330952678e-07
5.43664518e-07
5.497217785e-07
5.60654907e-07
5.938195571e-07
4.070979792e-07
1.530647795e-06
4.269356881e-06
4.025638071e-08
8.225036294e-08
1.141610594e-07
1.411636116e-07
1.651064619e-07
1.868800319e-07
2.070045148e-07
2.258173246e-07
2.435527348e-07
2.603815833e-07
2.764331661e-07
2.918082394e-07
3.065871975e-07
3.208354582e-07
3.346071462e-07
3.479476909e-07
3.608957095e-07
3.734844031e-07
3.857426129e-07
3.976956332e-07
4.093658477e-07
4.207732346e-07
4.319357735e-07
4.428697789e-07
4.535901768e-07
4.641107361e-07
4.744442868e-07
4.846029163e-07
4.945979214e-07
5.044421237e-07
5.141297958e-07
5.238011246e-07
5.326044369e-07
5.453280041e-07
5.400652321e-07
5.967553346e-07
4.637610132e-07
5.877480081e-07
2.729400481e-06
4.518466307e-06
4.024839403e-08
8.223403158e-08
1.141393487e-07
1.411374118e-07
1.650764498e-07
1.868467183e-07
2.069683132e-07
2.257785843e-07
2.435117573e-07
2.603386291e-07
2.763884564e-07
2.917619551e-07
3.065394759e-07
3.207863889e-07
3.345567656e-07
3.478959763e-07
3.608425734e-07
3.734296866e-07
3.856860795e-07
3.976369623e-07
4.093046278e-07
4.207089558e-07
4.318678193e-07
4.427974163e-07
4.535125451e-07
4.640268312e-07
4.743529273e-07
4.845027622e-07
4.944870674e-07
5.043214648e-07
5.139754168e-07
5.237584257e-07
5.318167224e-07
5.478200221e-07
5.302422171e-07
6.198344818e-07
3.543584848e-07
9.910364508e-07
3.252425815e-06
4.77068313e-06
4.024032359e-08
8.221754169e-08
1.141175353e-07
1.411111702e-07
1.65046472e-07
1.868135297e-07
2.069323412e-07
2.257401926e-07
2.434712619e-07
2.602963042e-07
2.763445359e-07
2.917166304e-07
3.064928918e-07
3.207386386e-07
3.345078844e-07
3.47845935e-07
3.607912714e-07
3.733769454e-07
3.856316361e-07
3.975804628e-07
4.092456214e-07
4.206468888e-07
4.318020292e-07
4.427271253e-07
4.534368548e-07
4.639447174e-07
4.742632167e-07
4.844041488e-07
4.943778204e-07
5.042022814e-07
5.138254211e-07
5.237037782e-07
5.311688665e-07
5.491829788e-07
5.28014325e-07
6.145870507e-07
3.836468549e-07
3.71136771e-07
3.73056735e-06
5.025644017e-06
4.023216478e-08
8.220088966e-08
1.140956159e-07
1.410848854e-07
1.650165307e-07
1.867804735e-07
2.068966137e-07
2.257021746e-07
2.434312866e-07
2.602546629e-07
2.763014786e-07
2.916723627e-07
3.064475703e-07
3.206923642e-07
3.344606954e-07
3.477978e-07
3.607420813e-07
3.733265067e-07
3.855796638e-07
3.975265746e-07
4.091893322e-07
4.205876065e-07
4.317390512e-07
4.426596362e-07
4.533639258e-07
4.63865307e-07
4.741761668e-07
4.843081831e-07
4.942715338e-07
5.040840914e-07
5.136978175e-07
5.235147407e-07
5.313073247e-07
5.477295266e-07
5.295440902e-07
6.274711994e-07
1.142421063e-07
1.061225812e-06
4.148339765e-06
5.279806649e-06
4.022391434e-08
8.218407676e-08
1.140735941e-07
1.410585648e-07
1.649866385e-07
1.86747569e-07
2.068611597e-07
2.256645715e-07
2.43391888e-07
2.60213781e-07
2.762593834e-07
2.916292785e-07
3.064036695e-07
3.206477602e-07
3.344154346e-07
3.477518533e-07
3.606953361e-07
3.732787591e-07
3.855306116e-07
3.974758113e-07
4.091363428e-07
4.205317648e-07
4.316796184e-07
4.425957637e-07
4.53294656e-07
4.637895789e-07
4.740928349e-07
4.842159963e-07
4.941694057e-07
5.039683856e-07
5.135878041e-07
5.232537484e-07
5.31836121e-07
5.445356448e-07
5.408983304e-07
5.894713928e-07
3.911145884e-07
1.61437237e-06
4.536904777e-06
5.534405896e-06
4.02155695e-08
8.216710635e-08
1.140514756e-07
1.410322183e-07
1.649568108e-07
1.867148394e-07
2.068260123e-07
2.256274298e-07
2.433531299e-07
2.601737434e-07
2.76218361e-07
2.91587519e-07
3.063613665e-07
3.206050449e-07
3.343723667e-07
3.477084115e-07
3.606514094e-07
3.732341381e-07
3.854849814e-07
3.974287459e-07
4.090873009e-07
4.204800887e-07
4.316245357e-07
4.425363929e-07
4.532300084e-07
4.637185716e-07
4.740143215e-07
4.841287533e-07
4.940724564e-07
5.038578619e-07
5.134829419e-07
5.230180982e-07
5.322017001e-07
5.423501113e-07
5.466297002e-07
5.768598907e-07
4.497156015e-07
6.322911239e-07
4.903664847e-06
5.790563932e-06
4.020712804e-08
8.214998425e-08
1.140292687e-07
1.410058588e-07
1.649270664e-07
1.866823116e-07
2.067912096e-07
2.255908023e-07
2.433150838e-07
2.601346453e-07
2.761785354e-07
2.915472425e-07
3.063208598e-07
3.205644629e-07
3.343317883e-07
3.476678295e-07
3.6061072e-07
3.731931319e-07
3.854433359e-07
3.973860193e-07
4.09042929e-07
4.204333841e-07
4.315746933e-07
4.42482494e-07
4.531710296e-07
4.636534046e-07
4.73941801e-07
4.8404767e-07
4.939817287e-07
5.037549875e-07
5.133769205e-07
5.2283979e-07
5.32342284e-07
5.409319885e-07
5.507812096e-07
5.692215679e-07
3.721043138e-07
1.090257931e-06
5.259822779e-06
6.047135865e-06
4.019858829e-08
8.213271878e-08
1.140069842e-07
1.40979502e-07
1.648974275e-07
1.866500164e-07
2.067567943e-07
2.255547477e-07
2.432778292e-07
2.600965922e-07
2.761400441e-07
2.915086249e-07
3.0628237e-07
3.205262865e-07
3.342940306e-07
3.476305035e-07
3.605737358e-07
3.731562863e-07
3.854063037e-07
3.973483476e-07
4.090040335e-07
4.2039255e-07
4.315310803e-07
4.424351397e-07
4.531188717e-07
4.635953024e-07
4.738765563e-07
4.839740361e-07
4.938987177e-07
5.036595567e-07
5.132822709e-07
5.22651302e-07
5.325945248e-07
5.389790198e-07
5.577507993e-07
5.436521813e-07
4.475656641e-07
1.456546908e-06
5.598836988e-06
6.303785746e-06
4.018994909e-08
8.211532088e-08
1.139846357e-07
1.409531664e-07
1.648679191e-07
1.866179881e-07
2.067228133e-07
2.255193304e-07
2.432414532e-07
2.600596999e-07
2.761030382e-07
2.914718598e-07
3.062461411e-07
3.204908178e-07
3.342594612e-07
3.47596875e-07
3.605409791e-07
3.731242108e-07
3.853745878e-07
3.973165316e-07
4.089715169e-07
4.203585919e-07
4.314948009e-07
4.423955307e-07
4.530748235e-07
4.635456274e-07
4.738200104e-07
4.839093403e-07
4.938247647e-07
5.035742881e-07
5.131909994e-07
5.225117657e-07
5.32674124e-07
5.376233561e-07
5.621048571e-07
5.416986892e-07
7.448150943e-07
1.782263629e-06
5.924155474e-06
6.561022324e-06
4.018120985e-08
8.209780435e-08
1.139622391e-07
1.409268731e-07
1.648385691e-07
1.86586264e-07
2.066893173e-07
2.254846195e-07
2.432060499e-07
2.600240942e-07
2.760676828e-07
2.914371599e-07
3.062124419e-07
3.204583905e-07
3.342284882e-07
3.475674347e-07
3.60513032e-07
3.730975865e-07
3.853489747e-07
3.972914689e-07
4.089463911e-07
4.203326362e-07
4.314670953e-07
4.423650223e-07
4.530403438e-07
4.635059204e-07
4.737737732e-07
4.838552214e-07
4.937618044e-07
5.034984327e-07
5.131232547e-07
5.22308489e-07
5.331031525e-07
5.35200401e-07
5.701674334e-07
5.25626317e-07
7.081069381e-07
2.114778303e-06
6.238975573e-06
6.820287062e-06
4.017237054e-08
8.208018602e-08
1.139398132e-07
1.409006456e-07
1.648094076e-07
1.865548841e-07
2.066563607e-07
2.25450689e-07
2.431717201e-07
2.599899109e-07
2.760341571e-07
2.914047573e-07
3.061815674e-07
3.20429373e-07
3.342015633e-07
3.475427283e-07
3.604905436e-07
3.73077175e-07
3.853303462e-07
3.972741677e-07
4.089297942e-07
4.203159508e-07
4.314493664e-07
4.423451484e-07
4.530170903e-07
4.634779452e-07
4.737396856e-07
4.838135738e-07
4.937117658e-07
5.034339095e-07
5.13081489e-07
5.220296893e-07
5.340374252e-07
5.306991508e-07
5.830385628e-07
4.899781653e-07
3.234408136e-07
2.474085694e-06
6.539594075e-06
7.083224637e-06
4.016343173e-08
8.206248598e-08
1.139173793e-07
1.408745095e-07
1.647804669e-07
1.865238908e-07
2.066240007e-07
2.254176174e-07
2.431385713e-07
2.599572957e-07
2.760026553e-07
2.913749051e-07
3.061538413e-07
3.204041712e-07
3.34179187e-07
3.475233623e-07
3.604742383e-07
3.730638291e-07
3.853196928e-07
3.972657635e-07
4.089230118e-07
4.203099766e-07
4.314432107e-07
4.423376541e-07
4.530069504e-07
4.634637282e-07
4.737198814e-07
4.837866314e-07
4.936765631e-07
5.033859697e-07
5.130439958e-07
5.218417851e-07
5.345342517e-07
5.286855419e-07
5.844404916e-07
5.019587269e-07
5.69523402e-07
7.766765619e-07
6.837695586e-06
7.349253831e-06
4.015439455e-08
8.204472779e-08
1.138949612e-07
1.408484928e-07
1.647517809e-07
1.86493328e-07
2.065922971e-07
2.253854874e-07
2.43106717e-07
2.599264039e-07
2.759733863e-07
2.913478783e-07
3.061296177e-07
3.203832323e-07
3.341619135e-07
3.475100123e-07
3.604649258e-07
3.730585056e-07
3.853181297e-07
3.972675392e-07
4.089275026e-07
4.203163557e-07
4.314504524e-07
4.423445411e-07
4.530120943e-07
4.634655998e-07
4.737168451e-07
4.837769831e-07
4.936588843e-07
5.033569837e-07
5.130157992e-07
5.217241644e-07
5.348478167e-07
5.266225157e-07
5.930594872e-07
4.654725335e-07
2.567412807e-07
1.21233397e-06
7.136222549e-06
7.617577693e-06
4.014526074e-08
8.202693872e-08
1.138725854e-07
1.408226252e-07
1.647233846e-07
1.864632404e-07
2.065613112e-07
2.25354385e-07
2.43076278e-07
2.598974015e-07
2.759465749e-07
2.913239758e-07
3.061092846e-07
3.203670497e-07
3.341503578e-07
3.475034311e-07
3.604635134e-07
3.730622808e-07
3.853269161e-07
3.972809492e-07
4.089449272e-07
4.203369616e-07
4.314731809e-07
4.423681162e-07
4.5303504e-07
4.634862708e-07
4.737334701e-07
4.837876789e-07
4.936620246e-07
5.033490362e-07
5.13007782e-07
5.216453799e-07
5.349862042e-07
5.261631702e-07
5.94146672e-07
4.393280164e-07
4.189716293e-07
1.629548177e-06
7.426755318e-06
7.888528542e-06
4.013603265e-08
8.200915009e-08
1.138502809e-07
1.407969378e-07
1.646953142e-07
1.864336734e-07
2.065311052e-07
2.253243993e-07
2.430473816e-07
2.598704668e-07
2.759224646e-07
2.913035225e-07
3.060932676e-07
3.203561683e-07
3.341452036e-07
3.475044606e-07
3.604710196e-07
3.730763685e-07
3.85347478e-07
3.973076475e-07
4.08977181e-07
4.203739402e-07
4.315138005e-07
4.424110452e-07
4.530787139e-07
4.63528918e-07
4.737731568e-07
4.838223437e-07
4.936896914e-07
5.033667401e-07
5.13020063e-07
5.21615335e-07
5.35086865e-07
5.256556445e-07
5.943292469e-07
4.602547879e-07
7.532098594e-07
2.022453266e-06
7.708677256e-06
8.162403381e-06
4.012671328e-08
8.199139757e-08
1.138280797e-07
1.407714636e-07
1.64667606e-07
1.864046726e-07
2.065017417e-07
2.25295621e-07
2.430201602e-07
2.598457903e-07
2.759013202e-07
2.912868761e-07
3.060820367e-07
3.203511928e-07
3.341472136e-07
3.47514044e-07
3.604885912e-07
3.731021406e-07
3.853814346e-07
3.973495205e-07
4.090264337e-07
4.20429758e-07
4.315750853e-07
4.424764173e-07
4.531465234e-07
4.63597266e-07
4.738399315e-07
4.838852708e-07
4.937464524e-07
5.03414782e-07
5.130572866e-07
5.216509898e-07
5.349819789e-07
5.264772346e-07
5.919679675e-07
4.381889896e-07
4.677704237e-07
2.408551402e-06
7.980500953e-06
8.438571111e-06
4.011730631e-08
8.197372144e-08
1.138060161e-07
1.407462367e-07
1.64640297e-07
1.863762836e-07
2.064732839e-07
2.252681434e-07
2.429947525e-07
2.598235739e-07
2.75883429e-07
2.912744309e-07
3.060761161e-07
3.203528009e-07
3.34157244e-07
3.475332422e-07
3.605175217e-07
3.731411501e-07
3.854306271e-07
3.974087238e-07
4.090951749e-07
4.205072556e-07
4.31660242e-07
4.425678182e-07
4.532424429e-07
4.636956825e-07
4.739385565e-07
4.839815766e-07
4.938379287e-07
5.03497464e-07
5.131383409e-07
5.21658787e-07
5.353442201e-07
5.24907874e-07
5.972539174e-07
4.12180083e-07
5.977758168e-07
2.745375244e-06
8.241578142e-06
8.716824949e-06
4.010781583e-08
8.195616608e-08
1.137841271e-07
1.407212923e-07
1.646134239e-07
1.863485511e-07
2.064457956e-07
2.252420626e-07
2.429713043e-07
2.598040332e-07
2.758690996e-07
2.912666168e-07
3.060760873e-07
3.203617537e-07
3.341762629e-07
3.475632584e-07
3.605592786e-07
3.731951645e-07
3.854971568e-07
3.974877253e-07
4.091862676e-07
4.206097129e-07
4.317729867e-07
4.426894191e-07
4.533711167e-07
4.638292991e-07
4.740746603e-07
4.841173811e-07
4.939707099e-07
5.036222114e-07
5.132639539e-07
5.217158699e-07
5.356555748e-07
5.240398195e-07
5.995939193e-07
4.072072382e-07
7.080861335e-07
3.150631413e-06
8.491206489e-06
8.998823674e-06
4.00982461e-08
8.193878029e-08
1.137624518e-07
1.406966662e-07
1.645870229e-07
1.863215194e-07
2.064193403e-07
2.252174775e-07
2.429499691e-07
2.597873996e-07
2.758586677e-07
2.91263903e-07
3.060825868e-07
3.203788954e-07
3.342053593e-07
3.476054639e-07
3.606155533e-07
3.732662295e-07
3.85583448e-07
3.975893682e-07
4.093030204e-07
4.20740936e-07
4.319176483e-07
4.428460961e-07
4.535379947e-07
4.64004166e-07
4.742549163e-07
4.842999766e-07
4.941528958e-07
5.037961733e-07
5.13453874e-07
5.217603387e-07
5.363187731e-07
5.220405556e-07
6.052772787e-07
3.926949621e-07
8.302526268e-07
1.096650756e-06
8.734058665e-06
9.285411897e-06
4.008860351e-08
8.192162473e-08
1.137410366e-07
1.406723998e-07
1.64561134e-07
1.862952357e-07
2.063939859e-07
2.251944939e-07
2.429309131e-07
2.597739266e-07
2.758525048e-07
2.912668147e-07
3.060963313e-07
3.204051726e-07
3.34245761e-07
3.476614299e-07
3.606883084e-07
3.733567364e-07
3.856923563e-07
3.97716992e-07
4.09449303e-07
4.209053789e-07
4.320993065e-07
4.430435877e-07
4.537495073e-07
4.642274447e-07
4.744872588e-07
4.845381149e-07
4.943939829e-07
5.040303883e-07
5.13714715e-07
5.218314847e-07
5.372020075e-07
5.195813494e-07
6.122556404e-07
3.713518357e-07
8.572127563e-07
1.491168389e-06
8.985995888e-06
9.574981766e-06
4.007890229e-08
8.190478459e-08
1.137199469e-07
1.406485495e-07
1.645358105e-07
1.862697602e-07
2.063698147e-07
2.251732373e-07
2.429143308e-07
2.597639088e-07
2.758510437e-07
2.912759657e-07
3.061181625e-07
3.204417032e-07
3.342989143e-07
3.477329838e-07
3.607798225e-07
3.734694814e-07
3.858272458e-07
3.978745508e-07
4.096296866e-07
4.211082998e-07
4.323239616e-07
4.432886742e-07
4.540132524e-07
4.645076091e-07
4.747811114e-07
4.848422558e-07
4.947054319e-07
5.043382331e-07
5.14055107e-07
5.219726983e-07
5.382059649e-07
5.169509109e-07
6.204395491e-07
3.429085618e-07
9.12514375e-07
1.969369091e-06
9.232937707e-06
9.866778671e-06
4.006916667e-08
8.188835295e-08
1.136992606e-07
1.406251834e-07
1.645111167e-07
1.862451659e-07
2.063469272e-07
2.251538602e-07
2.429004575e-07
2.59757702e-07
2.758548044e-07
2.912920916e-07
3.061490841e-07
3.204898187e-07
3.343665475e-07
3.478223077e-07
3.60892774e-07
3.736076981e-07
3.859920093e-07
3.980666961e-07
4.09849579e-07
4.213558707e-07
4.325986352e-07
4.435893111e-07
4.543381786e-07
4.64854662e-07
4.75147635e-07
4.852248186e-07
4.951013386e-07
5.047335171e-07
5.145013237e-07
5.221571041e-07
5.395147354e-07
5.137495134e-07
6.301828143e-07
3.122684081e-07
9.879061354e-07
2.402984655e-06
9.472356491e-06
1.016119748e-05
4.005941833e-08
8.187235632e-08
1.13679024e-07
1.406023446e-07
1.644870968e-07
1.862215121e-07
2.063254187e-07
2.25136522e-07
2.428895521e-07
2.597557072e-07
2.758643822e-07
2.913160384e-07
3.061902496e-07
3.205510549e-07
3.34450651e-07
3.479319169e-07
3.610302836e-07
3.737751913e-07
3.861911873e-07
3.982988005e-07
4.101152969e-07
4.21655357e-07
4.329315543e-07
4.439547768e-07
4.54734741e-07
4.652803571e-07
4.756000186e-07
4.857006064e-07
4.955982592e-07
5.052355845e-07
5.150689888e-07
5.2243995e-07
5.409900029e-07
5.108463995e-07
6.377569398e-07
2.913850785e-07
1.121759598e-06
2.817384407e-06
9.702706969e-06
1.045867281e-05
4.004966741e-08
8.185673163e-08
1.13659232e-07
1.40580037e-07
1.644637632e-07
1.861988331e-07
2.063053672e-07
2.251213744e-07
2.428818795e-07
2.597583506e-07
2.75880423e-07
2.913487344e-07
3.062429411e-07
3.206271392e-07
3.345534828e-07
3.480646966e-07
3.611959703e-07
3.739764145e-07
3.864301487e-07
3.985772031e-07
4.104342673e-07
4.220153749e-07
4.333325208e-07
4.443960876e-07
4.552152831e-07
4.657985369e-07
4.761538282e-07
4.862871767e-07
4.962162214e-07
5.058666177e-07
5.157852309e-07
5.228463577e-07
5.42678142e-07
5.079447078e-07
6.466417947e-07
2.279858182e-07
3.649380055e-07
3.200557118e-06
9.92089678e-06
1.075796171e-05
4.003994115e-08
8.184151971e-08
1.136399445e-07
1.40558322e-07
1.644411847e-07
1.861772208e-07
2.062869123e-07
2.251086402e-07
2.428777907e-07
2.597661677e-07
2.759037133e-07
2.913912851e-07
3.063086881e-07
3.20720127e-07
3.346777316e-07
3.4822409e-07
3.613941563e-07
3.742166895e-07
3.867153354e-07
3.989095643e-07
4.108154357e-07
4.224462681e-07
4.338133528e-07
4.449265323e-07
4.557946036e-07
4.66425667e-07
4.768274926e-07
4.870053521e-07
4.969789745e-07
5.066547e-07
5.166739675e-07
5.234733397e-07
5.441905387e-07
5.08055233e-07
6.445315872e-07
2.319095681e-07
6.217581246e-07
3.609437234e-06
1.012728803e-05
1.10580888e-05
4.003030802e-08
8.182705539e-08
1.136214074e-07
1.405374257e-07
1.644195889e-07
1.861569279e-07
2.062703657e-07
2.250987333e-07
2.428778586e-07
2.597799596e-07
2.759353603e-07
2.914451899e-07
3.063895083e-07
3.208326629e-07
3.348267921e-07
3.48414377e-07
3.61630155e-07
3.745025188e-07
3.870545977e-07
3.993052322e-07
4.112697389e-07
4.229606218e-07
4.343883469e-07
4.455621262e-07
4.564904567e-07
4.671813858e-07
4.776428738e-07
4.878798242e-07
4.979144916e-07
5.076357156e-07
5.177516418e-07
5.24500321e-07
5.44902562e-07
5.145393186e-07
6.204903049e-07
3.738389636e-07
8.857631342e-07
4.052416567e-06
1.031688556e-05
1.136094165e-05
4.002082005e-08
8.18137051e-08
1.136039066e-07
1.405176353e-07
1.643992847e-07
1.861383101e-07
2.062561683e-07
2.250922323e-07
2.428828664e-07
2.598007999e-07
2.759768266e-07
2.915124286e-07
3.064880228e-07
3.209681412e-07
3.350049768e-07
3.48640948e-07
3.619105983e-07
3.748419445e-07
3.874575801e-07
3.99775638e-07
4.118105473e-07
4.235738147e-07
4.350748994e-07
4.463222645e-07
4.573242064e-07
4.680891322e-07
4.786258937e-07
4.889397472e-07
4.990567175e-07
5.088471195e-07
5.190859089e-07
5.257815566e-07
5.466287907e-07
5.139217971e-07
6.299806252e-07
3.581592608e-07
9.56378379e-07
1.462897043e-06
1.051697113e-05
1.166701337e-05
4.001147501e-08
8.180153532e-08
1.135875692e-07
1.404991389e-07
1.643805226e-07
1.86121701e-07
2.062447753e-07
2.250897726e-07
2.428937078e-07
2.598299404e-07
2.760298381e-07
2.915953807e-07
3.066074146e-07
3.211307349e-07
3.352176531e-07
3.489105665e-07
3.622438225e-07
3.752450568e-07
3.879363246e-07
4.003349711e-07
4.124543859e-07
4.243048185e-07
4.358944205e-07
4.472306956e-07
4.58321798e-07
4.691770506e-07
4.798073322e-07
4.902195246e-07
5.004462085e-07
5.103321619e-07
5.207600139e-07
5.27326962e-07
5.48899468e-07
5.137148252e-07
6.481161698e-07
1.02425703e-07
9.822213664e-07
1.847773496e-06
1.071686254e-05
1.197595549e-05
4.000231007e-08
8.179061805e-08
1.135725401e-07
1.404821489e-07
1.643635944e-07
1.861075028e-07
2.06236746e-07
2.250921388e-07
2.429114873e-07
2.59868925e-07
2.760965127e-07
2.916969215e-07
3.067515292e-07
3.213255119e-07
3.35471393e-07
3.492315901e-07
3.626402466e-07
3.757246089e-07
3.885061414e-07
4.01001285e-07
4.132222129e-07
4.251775707e-07
4.36873734e-07
4.483168887e-07
4.595150583e-07
4.704791678e-07
4.812238034e-07
4.917599017e-07
5.021288946e-07
5.121584108e-07
5.227821756e-07
5.295395861e-07
5.504170902e-07
5.234137308e-07
6.168526448e-07
3.75245132e-07
1.051591807e-06
2.245786429e-06
1.090931983e-05
1.228752344e-05
3.999343903e-08
8.178130537e-08
1.135591886e-07
1.404671002e-07
1.643490317e-07
1.860963864e-07
2.062329515e-07
2.251004839e-07
2.429377544e-07
2.599198513e-07
2.761796832e-07
2.91820799e-07
3.069252765e-07
3.215588351e-07
3.357743396e-07
3.496143103e-07
3.631127481e-07
3.762965193e-07
3.891863795e-07
4.017976792e-07
4.141410569e-07
4.262229739e-07
4.380472573e-07
4.496181912e-07
4.609436333e-07
4.720369821e-07
4.829190264e-07
4.936084199e-07
5.041614613e-07
5.14391745e-07
5.252344426e-07
5.325948019e-07
5.52094767e-07
5.264589504e-07
6.377626577e-07
5.470993287e-07
1.120765192e-06
2.63042714e-06
1.109341681e-05
1.26014318e-05
3.998498649e-08
8.177399299e-08
1.135480145e-07
1.404546241e-07
1.643376191e-07
1.860893348e-07
2.062346435e-07
2.251164279e-07
2.429746326e-07
2.599855271e-07
2.762830952e-07
2.919719512e-07
3.071350978e-07
3.218389875e-07
3.361369741e-07
3.500718157e-07
3.636775189e-07
3.769806586e-07
3.900012595e-07
4.027533999e-07
4.15245644e-07
4.274812137e-07
4.394599476e-07
4.511830749e-07
4.626580451e-07
4.739019134e-07
4.849454518e-07
4.958205669e-07
5.06614378e-07
5.170680999e-07
5.285459518e-07
5.350246038e-07
5.58795037e-07
5.269477514e-07
6.317490515e-07
3.704664138e-07
1.199335751e-06
2.963195916e-06
1.126720587e-05
1.291753589e-05
3.997710641e-08
8.176912053e-08
1.135396156e-07
1.404455149e-07
1.64330379e-07
1.860876531e-07
2.062434934e-07
2.251421312e-07
2.430249397e-07
2.600696422e-07
2.764116035e-07
2.921567642e-07
3.073893299e-07
3.221767166e-07
3.365729411e-07
3.506211557e-07
3.643555398e-07
3.778025636e-07
3.90981712e-07
4.039057513e-07
4.165805436e-07
4.290044707e-07
4.411708056e-07
4.530753436e-07
4.647240956e-07
4.761391197e-07
4.8736679e-07
4.984638977e-07
5.095505337e-07
5.203863836e-07
5.322723691e-07
5.397072919e-07
5.625322871e-07
5.347158074e-07
6.328051326e-07
4.425823618e-07
1.312024666e-06
3.279836516e-06
1.14301402e-05
1.323643397e-05
3.996999601e-08
8.176721743e-08
1.135347584e-07
1.404408198e-07
1.643286784e-07
1.860930972e-07
2.062617489e-07
2.251804867e-07
2.430924331e-07
2.60177094e-07
2.765715918e-07
2.923835787e-07
3.076987936e-07
3.225859057e-07
3.370998218e-07
3.512843029e-07
3.651739631e-07
3.78795524e-07
3.921683357e-07
4.05304023e-07
4.182051413e-07
4.308629205e-07
4.432598793e-07
4.553820993e-07
4.672313402e-07
4.788354227e-07
4.902654594e-07
5.016177499e-07
5.130854643e-07
5.243543464e-07
5.371651197e-07
5.446955703e-07
5.695271895e-07
5.442666653e-07
6.260563701e-07
4.773023485e-07
1.467506197e-06
3.617073854e-06
1.157926282e-05
1.355840113e-05
3.996392686e-08
8.176899483e-08
1.135344722e-07
1.404419477e-07
1.643343599e-07
1.861080291e-07
2.062924202e-07
2.252353468e-07
2.431820863e-07
2.60314342e-07
2.76771487e-07
2.926634007e-07
3.080777337e-07
3.230847477e-07
3.37740557e-07
3.520899062e-07
3.66168477e-07
3.800041576e-07
3.93617246e-07
4.070185984e-07
4.202073686e-07
4.331628477e-07
4.45849968e-07
4.582383439e-07
4.703193698e-07
4.821261052e-07
4.937669088e-07
5.054093708e-07
5.173521397e-07
5.291916096e-07
5.434215766e-07
5.506254052e-07
5.804189487e-07
5.448011407e-07
6.760076679e-07
2.957159401e-07
1.336544924e-06
3.811522458e-06
1.170999486e-05
1.388296829e-05
3.995923943e-08
8.177531125e-08
1.135400639e-07
1.404507251e-07
1.643498366e-07
1.861355544e-07
2.063394682e-07
2.25311777e-07
2.433004236e-07
2.604898644e-07
2.770224239e-07
2.930108136e-07
3.085450866e-07
3.236976381e-07
3.385265272e-07
3.530783399e-07
3.673912508e-07
3.814961739e-07
3.954161791e-07
4.091607136e-07
4.227285494e-07
4.360746801e-07
4.491368643e-07
4.618598777e-07
4.74213153e-07
4.862313894e-07
4.98072802e-07
5.100422184e-07
5.2252957e-07
5.354157076e-07
5.508245986e-07
5.60185303e-07
5.902875385e-07
5.633567153e-07
6.833057939e-07
2.287402461e-07
1.383160983e-06
3.987536454e-06
1.18288925e-05
1.420967352e-05
3.995637142e-08
8.178726417e-08
1.135532302e-07
1.404695423e-07
1.64378277e-07
1.861797522e-07
2.064080926e-07
2.254164371e-07
2.434560389e-07
2.607149391e-07
2.77339413e-07
2.934458016e-07
3.091275523e-07
3.244606327e-07
3.395063465e-07
3.543142933e-07
3.689254693e-07
3.833729706e-07
3.976792959e-07
4.118500794e-07
4.258861179e-07
4.397069799e-07
4.532193388e-07
4.66331545e-07
4.789722571e-07
4.911596921e-07
5.031140984e-07
5.15352602e-07
5.285235639e-07
5.429590077e-07
5.599797405e-07
5.732089412e-07
6.071812802e-07
5.806176429e-07
6.696804956e-07
4.998276951e-07
1.781021417e-06
4.558622354e-06
1.193864253e-05
1.453891753e-05
3.995587684e-08
8.180626254e-08
1.135761709e-07
1.405015186e-07
1.644238288e-07
1.862459597e-07
2.06505114e-07
2.255581359e-07
2.436605167e-07
2.610052919e-07
2.777442117e-07
2.939988631e-07
3.098683636e-07
3.254344261e-07
3.407550329e-07
3.558758649e-07
3.708239637e-07
3.856149718e-07
4.002509756e-07
4.147741628e-07
4.291151023e-07
4.432845399e-07
4.57159361e-07
4.705198763e-07
4.832331955e-07
4.952706599e-07
5.069521913e-07
5.190293506e-07
5.331782659e-07
5.487879993e-07
5.701462008e-07
5.891200283e-07
6.263321109e-07
6.063028871e-07
7.109834759e-07
5.953204704e-07
5.857882404e-07
3.933371501e-06
1.202284029e-05
1.487125048e-05
3.995851817e-08
8.18342317e-08
1.136118292e-07
1.405507846e-07
1.644919962e-07
1.863413086e-07
2.066398661e-07
2.257494195e-07
2.439314269e-07
2.613862797e-07
2.782731256e-07
2.947196338e-07
3.108288951e-07
3.266729973e-07
3.422512343e-07
3.575647145e-07
3.725791987e-07
3.872837386e-07
4.017177787e-07
4.163085486e-07
4.30441336e-07
4.449625179e-07
4.594928906e-07
4.731056665e-07
4.856127806e-07
4.970629613e-07
5.080964141e-07
5.197951528e-07
5.357743003e-07
5.504985695e-07
5.797384499e-07
5.965888424e-07
6.445824996e-07
6.465468047e-07
7.613525981e-07
5.68962113e-07
1.78071058e-06
4.793940419e-06
1.208170785e-05
1.520732655e-05
3.996547029e-08
8.187386098e-08
1.13664417e-07
1.406232321e-07
1.645908638e-07
1.864769531e-07
2.06828035e-07
2.260127176e-07
2.443006841e-07
2.618998354e-07
2.789693725e-07
2.956210136e-07
3.119154513e-07
3.278105725e-07
3.431550091e-07
3.579128079e-07
3.721872309e-07
3.863806775e-07
4.013118037e-07
4.190156172e-07
4.366071782e-07
4.573368947e-07
4.787015037e-07
4.969700448e-07
5.118634092e-07
5.243737813e-07
5.368206101e-07
5.522936703e-07
5.743437852e-07
5.884728995e-07
6.169609722e-07
6.010024965e-07
6.556163466e-07