/*--------------------------------*- C++ -*----------------------------------*\
| =========                 |                                                 |
| \\      /  F ield         | OpenFOAM: The Open Source CFD Toolbox           |
|  \\    /   O peration     | Version:  v1912                                 |
|   \\  /    A nd           | Website:  www.openfoam.com                      |
|    \\/     M anipulation  |                                                 |
\*---------------------------------------------------------------------------*/
FoamFile
{
    version     2.0;
    format      ascii;
    class       volScalarField;
    location    "0.8";
    object      alpha.liquid_0;
}
// * * * * * * * * * * * * * * * * * * * * * * * * * * * * * * * * * * * * * //

dimensions      [0 0 0 0 0 0 0];


internalField   nonuniform List<scalar> 
4800
(
1
1
1
1
1
1
1
1
1
1
1
1
1
1
1
1
1
1
1
1
1
1
1
1
1
1
1
1
1
1
1
1
1
1
1
1
1
1
0.9999470455
0.9894399617
1
1
1
1
1
1
1
1
1
1
1
1
1
1
1
1
1
1
1
1
1
1
1
1
1
1
1
1
1
1
1
1
1
1
1
1
1
1
0.9998078554
0.9848180226
1
1
1
1
1
1
1
1
1
1
1
1
1
1
1
1
1
1
1
1
1
1
1
1
1
1
1
1
1
1
1
1
1
1
1
1
1
1
0.999579235
0.9794170374
1
1
1
1
1
1
1
1
1
1
1
1
1
1
1
1
1
1
1
1
1
1
1
1
1
1
1
1
1
1
1
1
1
1
1
1
1
1
0.9992870697
0.9743724206
1
1
1
1
1
1
1
1
1
1
1
1
1
1
1
1
1
1
1
1
1
1
1
1
1
1
1
1
1
1
1
1
1
1
1
1
1
1
0.9989162213
0.9699513746
1
1
1
1
1
1
1
1
1
1
1
1
1
1
1
1
1
1
1
1
1
1
1
1
1
1
1
1
1
1
1
1
1
1
1
1
1
1
0.9985710805
0.9660445161
1
1
1
1
1
1
1
1
1
1
1
1
1
1
1
1
1
1
1
1
1
1
1
1
1
1
1
1
1
1
1
1
1
1
1
1
1
1
0.998194284
0.9626020343
1
1
1
1
1
1
1
1
1
1
1
1
1
1
1
1
1
1
1
1
1
1
1
1
1
1
1
1
1
1
1
1
1
1
1
1
1
1
0.9976426318
0.9596032446
1
1
1
1
1
1
1
1
1
1
1
1
1
1
1
1
1
1
1
1
1
1
1
1
1
1
1
1
1
1
1
1
1
1
1
1
1
1
0.9970655009
0.9569277356
1
1
1
1
1
1
1
1
1
1
1
1
1
1
1
1
1
1
1
1
1
1
1
1
1
1
1
1
1
1
1
1
1
1
1
1
1
1
0.9964967148
0.9545048015
1
1
1
1
1
1
1
1
1
1
1
1
1
1
1
1
1
1
1
1
1
1
1
1
1
1
1
1
1
1
1
1
1
1
1
1
1
1
0.9959445281
0.9522861357
1
1
1
1
1
1
1
1
1
1
1
1
1
1
1
1
1
1
1
1
1
1
1
1
1
1
1
1
1
1
1
1
1
1
1
1
1
1
0.9954010057
0.9502403352
1
1
1
1
1
1
1
1
1
1
1
1
1
1
1
1
1
1
1
1
1
1
1
1
1
1
1
1
1
1
1
1
1
1
1
1
1
0.9999984545
0.9948628497
0.9483460504
1
1
1
1
1
1
1
1
1
1
1
1
1
1
1
1
1
1
1
1
1
1
1
1
1
1
1
1
1
1
1
1
1
1
1
1
1
0.9999942716
0.9943301076
0.9465865003
1
1
1
1
1
1
1
1
1
1
1
1
1
1
1
1
1
1
1
1
1
1
1
1
1
1
1
1
1
1
1
1
1
1
1
1
1
0.9999875919
0.9937995829
0.9449470044
1
1
1
1
1
1
1
1
1
1
1
1
1
1
1
1
1
1
1
1
1
1
1
1
1
1
1
1
1
1
1
1
1
1
1
1
1
0.9999788459
0.9932677755
0.9434139624
1
1
1
1
1
1
1
1
1
1
1
1
1
1
1
1
1
1
1
1
1
1
1
1
1
1
1
1
1
1
1
1
1
1
1
1
1
0.9999684457
0.9927351307
0.9419751444
1
1
1
1
1
1
1
1
1
1
1
1
1
1
1
1
1
1
1
1
1
1
1
1
1
1
1
1
1
1
1
1
1
1
1
1
1
0.9999566739
0.9922029472
0.9406204477
1
1
1
1
1
1
1
1
1
1
1
1
1
1
1
1
1
1
1
1
1
1
1
1
1
1
1
1
1
1
1
1
1
1
1
1
1
0.999943569
0.9916717316
0.9393415695
1
1
1
1
1
1
1
1
1
1
1
1
1
1
1
1
1
1
1
1
1
1
1
1
1
1
1
1
1
1
1
1
1
1
1
1
1
0.9999290504
0.9911422978
0.9381297295
1
1
1
1
1
1
1
1
1
1
1
1
1
1
1
1
1
1
1
1
1
1
1
1
1
1
1
1
1
1
1
1
1
1
1
1
1
0.9999131901
0.9906149722
0.9369760638
1
1
1
1
1
1
1
1
1
1
1
1
1
1
1
1
1
1
1
1
1
1
1
1
1
1
1
1
1
1
1
1
1
1
1
1
1
0.9998960135
0.9900897481
0.9358726557
1
1
1
1
1
1
1
1
1
1
1
1
1
1
1
1
1
1
1
1
1
1
1
1
1
1
1
1
1
1
1
1
1
1
1
1
1
0.9998768837
0.9895665978
0.9348125974
1
1
1
1
1
1
1
1
1
1
1
1
1
1
1
1
1
1
1
1
1
1
1
1
1
1
1
1
1
1
1
1
1
1
1
1
1
0.9998558422
0.9890451615
0.9337906864
1
1
1
1
1
1
1
1
1
1
1
1
1
1
1
1
1
1
1
1
1
1
1
1
1
1
1
1
1
1
1
1
1
1
1
1
1
0.9998331764
0.9885259354
0.9328047798
1
1
1
1
1
1
1
1
1
1
1
1
1
1
1
1
1
1
1
1
1
1
1
1
1
1
1
1
1
1
1
1
1
1
1
1
1
0.999808842
0.9880097757
0.9318558926
1
1
1
1
1
1
1
1
1
1
1
1
1
1
1
1
1
1
1
1
1
1
1
1
1
1
1
1
1
1
1
1
1
1
1
1
1
0.9997819105
0.9874985454
0.9309445283
1
1
1
1
1
1
1
1
1
1
1
1
1
1
1
1
1
1
1
1
1
1
1
1
1
1
1
1
1
1
1
1
1
1
1
1
1
0.9997534368
0.9869918952
0.9300685708
1
1
1
1
1
1
1
1
1
1
1
1
1
1
1
1
1
1
1
1
1
1
1
1
1
1
1
1
1
1
1
1
1
1
1
1
1
0.9997237196
0.9864899423
0.9292253293
1
1
1
1
1
1
1
1
1
1
1
1
1
1
1
1
1
1
1
1
1
1
1
1
1
1
1
1
1
1
1
1
1
1
1
1
1
0.9996930634
0.9859924264
0.9284115839
1
1
1
1
1
1
1
1
1
1
1
1
1
1
1
1
1
1
1
1
1
1
1
1
1
1
1
1
1
1
1
1
1
1
1
1
1
0.9996619225
0.9854992759
0.9276233697
1
1
1
1
1
1
1
1
1
1
1
1
1
1
1
1
1
1
1
1
1
1
1
1
1
1
1
1
1
1
1
1
1
1
1
1
1
0.9996304156
0.9850105546
0.9268575332
1
1
1
1
1
1
1
1
1
1
1
1
1
1
1
1
1
1
1
1
1
1
1
1
1
1
1
1
1
1
1
1
1
1
1
1
1
0.9995997533
0.9845269489
0.9261145787
1
1
1
1
1
1
1
1
1
1
1
1
1
1
1
1
1
1
1
1
1
1
1
1
1
1
1
1
1
1
1
1
1
1
1
1
1
0.9995654555
0.984054343
0.9253984733
1
1
1
1
1
1
1
1
1
1
1
1
1
1
1
1
1
1
1
1
1
1
1
1
1
1
1
1
1
1
1
1
1
1
1
1
1
0.9995300145
0.9835937483
0.9247104371
1
1
1
1
1
1
1
1
1
1
1
1
1
1
1
1
1
1
1
1
1
1
1
1
1
1
1
1
1
1
1
1
1
1
1
1
1
0.9994955899
0.9831441092
0.9240496432
1
1
1
1
1
1
1
1
1
1
1
1
1
1
1
1
1
1
1
1
1
1
1
1
1
1
1
1
1
1
1
1
1
1
1
1
1
0.9994628472
0.9827054704
0.9234148494
1
1
1
1
1
1
1
1
1
1
1
1
1
1
1
1
1
1
1
1
1
1
1
1
1
1
1
1
1
1
1
1
1
1
1
1
1
0.9994327453
0.9822780378
0.9228043773
1
1
1
1
1
1
1
1
1
1
1
1
1
1
1
1
1
1
1
1
1
1
1
1
1
1
1
1
1
1
1
1
1
1
1
1
1
0.9994055307
0.9818620939
0.9222160381
1
1
1
1
1
1
1
1
1
1
1
1
1
1
1
1
1
1
1
1
1
1
1
1
1
1
1
1
1
1
1
1
1
1
1
1
1
0.9993831713
0.9814587303
0.9216468268
1
1
1
1
1
1
1
1
1
1
1
1
1
1
1
1
1
1
1
1
1
1
1
1
1
1
1
1
1
1
1
1
1
1
1
1
1
0.9993654591
0.9810703888
0.9210934355
1
1
1
1
1
1
1
1
1
1
1
1
1
1
1
1
1
1
1
1
1
1
1
1
1
1
1
1
1
1
1
1
1
1
1
1
1
0.9993505361
0.9807011109
0.9205539468
1
1
1
1
1
1
1
1
1
1
1
1
1
1
1
1
1
1
1
1
1
1
1
1
1
1
1
1
1
1
1
1
1
1
1
1
1
0.999339113
0.9803531411
0.9200277048
1
1
1
1
1
1
1
1
1
1
1
1
1
1
1
1
1
1
1
1
1
1
1
1
1
1
1
1
1
1
1
1
1
1
1
1
1
0.9993379376
0.9800270443
0.9195152987
1
1
1
1
1
1
1
1
1
1
1
1
1
1
1
1
1
1
1
1
1
1
1
1
1
1
1
1
1
1
1
1
1
1
1
1
1
0.9993442013
0.9797260475
0.9190183929
1
1
1
1
1
1
1
1
1
1
1
1
1
1
1
1
1
1
1
1
1
1
1
1
1
1
1
1
1
1
1
1
1
1
1
1
1
0.9993440944
0.9794522061
0.9185409688
1
1
1
1
1
1
1
1
1
1
1
1
1
1
1
1
1
1
1
1
1
1
1
1
1
1
1
1
1
0.9999999999
0.9999999948
0.9999999497
0.9999999725
0.9999999906
0.9999999989
1
1
0.9993508091
0.9791972256
0.9180807953
1
1
1
1
1
1
1
1
1
1
1
1
1
1
1
1
1
1
1
1
1
0.9999999999
0.9999999994
0.9999999983
0.9999999974
0.9999999978
0.999999999
0.9999999999
0.999999999
0.9999998066
0.9999966416
0.9999841994
0.9999867638
0.9999940556
0.9999990311
0.9999999664
1
0.9993714042
0.9789390368
0.9176309149
1
1
1
1
1
1
1
1
1
1
1
1
1
1
1
1
0.9999999999
0.9999999999
0.9999999997
0.9999999981
0.9999999858
0.9999999336
0.9999998184
0.9999996985
0.9999997451
0.9999998741
0.9999999718
0.9999999881
0.999998738
0.9999675644
0.9998162247
0.9995676003
0.9995815487
0.9997728338
0.9999466762
0.9999954766
0.9999998911
0.9993784662
0.9786856401
0.9171797141
1
1
1
1
1
1
1
1
1
1
1
1
0.9999999999
0.9999999992
0.9999999961
0.9999999884
0.9999999759
0.9999999541
0.9999998772
0.9999994669
0.9999978231
0.999994592
0.9999911432
0.9999915038
0.999995416
0.9999985291
0.9999996592
0.9999949363
0.9998910423
0.9993756348
0.9985555645
0.9980506329
0.9981312117
0.9986872358
0.9995113053
0.999926786
0.9999969782
0.9993877451
0.9783867679
0.9167046031
1
1
1
1
1
1
1
1
1
1
0.9999999994
0.9999999926
0.9999999463
0.9999997667
0.9999993619
0.9999987701
0.9999980011
0.9999963943
0.9999908658
0.999972771
0.9999381909
0.9999066285
0.9999019353
0.9999370075
0.9999743011
0.9999910778
0.9999779362
0.9997230005
0.9987655193
0.9975800604
0.9969990699
0.9970331618
0.9971939087
0.9974797291
0.9985572764
0.9996347671
0.9999758315
0.9993722399
0.9779654567
0.9161429086
1
1
1
1
1
1
0.9999999999
0.9999999993
0.9999999945
0.9999999565
0.9999997035
0.9999984581
0.9999945446
0.9999868686
0.9999768995
0.9999664314
0.999951482
0.9999146908
0.9998184526
0.9996485273
0.9994998161
0.9994619576
0.9995935486
0.9997834853
0.9998877052
0.9998776813
0.9993479876
0.9979721202
0.9967357274
0.9963563862
0.9965885883
0.9968977282
0.9970558549
0.9971824739
0.9978320617
0.9991935352
0.9999124938
0.9993162425
0.9772803451
0.9153714052
0.9999999993
0.9999999992
0.9999999984
0.999999996
0.9999999891
0.9999999683
0.999999895
0.9999995941
0.9999983152
0.9999933012
0.9999766388
0.9999358317
0.9998690707
0.9997926814
0.9997245328
0.9996518258
0.9995149349
0.9992106557
0.9987220833
0.9983054611
0.9981740442
0.9984135447
0.9989284233
0.9992539295
0.9993056285
0.9985037135
0.9968960248
0.995706174
0.9953731571
0.9958992401
0.9965794301
0.9968416286
0.9969829013
0.9971330111
0.997467204
0.9985508745
0.9998132027
0.9991691476
0.975610019
0.9144446877
0.9999995076
0.9999994076
0.9999989179
0.9999977922
0.9999956773
0.9999915803
0.999982387
0.9999592514
0.9999024999
0.9997754854
0.9995394056
0.9992135228
0.9988905865
0.9986407618
0.9984275496
0.9981053169
0.9974835719
0.9965555728
0.9957338206
0.9954130868
0.9955535332
0.9964026771
0.9970603724
0.9972659584
0.9966687441
0.9950184721
0.9938963865
0.9935543569
0.9937869393
0.9946981312
0.9954139406
0.9961193864
0.9967127206
0.9971978038
0.997689507
0.9985175515
0.9996260584
0.9988715983
0.9720617484
0.9133379369
0.9999407495
0.9999235643
0.9998711201
0.9997891035
0.9996893229
0.9995629792
0.9993652846
0.9990164289
0.9984370476
0.9976111278
0.996681534
0.9959007748
0.9953855176
0.99500772
0.9944944273
0.9935584637
0.9922166507
0.9909468122
0.9902686357
0.990146731
0.9908094048
0.9918880931
0.99241417
0.9924871333
0.9913136484
0.9898712944
0.9889350658
0.988193359
0.9875392913
0.9872054756
0.9873113662
0.9899087928
0.9929825691
0.9955718572
0.9973474615
0.998506113
0.999287652
0.9974689379
0.9660188479
0.9118240798
0.9981618267
0.9975475806
0.9962873043
0.9950429284
0.994203003
0.9936180155
0.9928862414
0.9917523233
0.9903026465
0.9888916012
0.9879032487
0.9874176214
0.9871589042
0.986708503
0.9856356867
0.9840615625
0.9824669738
0.981370779
0.9809455661
0.9809371176
0.9818100231
0.9828384648
0.9832971905
0.9833333871
0.9815398315
0.9788592755
0.9755146052
0.9707608439
0.96496765
0.9591308317
0.954976579
0.9536733334
0.9636849863
0.977775014
0.9879128326
0.9938151781
0.9964410224
0.9922677914
0.9571364461
0.9095098538
0.979572231
0.9735678745
0.9655998113
0.9613327076
0.9616284637
0.9638456938
0.9657105394
0.9666793092
0.9672258044
0.9679226303
0.9687959443
0.9695179993
0.9698305018
0.9694368805
0.9680844777
0.9666208942
0.9653070547
0.9643241882
0.9637754154
0.9636220473
0.9641071133
0.9649904935
0.965354307
0.9649818714
0.9605488634
0.9531794327
0.9428962153
0.9280225622
0.9082269711
0.8839255604
0.8595876601
0.8440280599
0.8414352443
0.8943360192
0.9427128176
0.9712895615
0.980611217
0.9813379601
0.9457120984
0.905662926
0.893965349
0.8748184364
0.8600437371
0.8592531711
0.8719530424
0.8865147798
0.8992149609
0.9089481538
0.9163102977
0.9218558595
0.9254989128
0.927426434
0.9282068507
0.9284128999
0.9279757745
0.9274633192
0.9264377927
0.9245789098
0.9223345413
0.9204087527
0.9193100999
0.9190327242
0.9191723733
0.9183316819
0.9113641239
0.898162707
0.8794758569
0.851298566
0.8096798329
0.7521413057
0.6831735809
0.621879763
0.5952077003
0.6506897774
0.7896637621
0.9054039165
0.9547134298
0.9629832467
0.9328370457
0.8986930082
0.6908663497
0.6744371046
0.6692584331
0.6872284942
0.7127522636
0.7388065904
0.7617717284
0.7794297624
0.7914453725
0.7984842645
0.8013974923
0.8018843157
0.799406256
0.7973325297
0.7955190201
0.7934419823
0.7896954407
0.7831318876
0.7743504344
0.7647106758
0.7560978531
0.7503958892
0.7478134301
0.7470813043
0.7482825774
0.7489850465
0.7460452283
0.7226596811
0.68147259
0.6138184769
0.5179138852
0.4123886571
0.3410354424
0.3241978008
0.4633280387
0.6991282541
0.8816535692
0.9357567108
0.9176615265
0.8846766167
0.4881632426
0.4752402653
0.4721837752
0.4783368825
0.4857166433
0.4919445765
0.4950846222
0.495761814
0.4940746647
0.4869136578
0.4765063543
0.4629674809
0.4475940751
0.431902601
0.4176268858
0.4056833349
0.3956445128
0.3857926781
0.3741359834
0.359971581
0.34481783
0.3327063703
0.3269998952
0.3266800426
0.3431419588
0.366880765
0.401083692
0.4375554881
0.4586429777
0.4602157156
0.4001507933
0.3223687621
0.2322832564
0.1675060053
0.1610379167
0.3312234483
0.6399434515
0.8621849872
0.8956919205
0.8531360094
0.344625635
0.3295445601
0.3176960112
0.3037056917
0.2859286775
0.2659239854
0.2458056673
0.227053061
0.2101130256
0.1948217073
0.1800483778
0.1649502392
0.1498104069
0.1350800452
0.1218747768
0.1110468104
0.1026959045
0.09608512334
0.09002109213
0.08342402143
0.07584231971
0.06769848416
0.06000071364
0.05411753967
0.05142601284
0.05801568124
0.07450070321
0.1024914405
0.142419416
0.1860095539
0.2115832574
0.2100711591
0.1716247097
0.128595363
0.07347746314
0.06979387669
0.2362819071
0.5769702949
0.7980220776
0.7752442382
0.246050355
0.2291208678
0.2095618749
0.1866232848
0.1620651744
0.1380695226
0.1164614185
0.09793505457
0.08229461389
0.06924570901
0.05806526536
0.04823672651
0.03983552309
0.03285867306
0.02727960713
0.02294314153
0.01956007293
0.01677913879
0.01436030449
0.01225649829
0.01043806685
0.008728292562
0.006849801658
0.004741879894
0.002981721554
0.002203044071
0.002171079718
0.004251772773
0.007937703706
0.01563681933
0.02895629611
0.04588675828
0.05791245389
0.05528127854
0.04252069031
0.01958588377
0.01964211235
0.1087443956
0.2947693891
0.4176729443
0.1729715688
0.1561135888
0.135534694
0.1148380307
0.0955938398
0.07869468674
0.06437718714
0.05234848492
0.04208882619
0.03306402257
0.02496205977
0.01792302261
0.01242086566
0.008646678047
0.006215002439
0.004589619881
0.003399490568
0.002459139838
0.001732244344
0.001234051199
0.0009200464424
0.0007017666762
0.0004889231429
0.0002569753602
8.822895615e-05
1.918843941e-05
1.950723059e-06
8.280044598e-07
1.739794349e-06
2.585775573e-06
4.013405947e-06
4.283618195e-05
0.0006183863938
0.002604121889
0.005808477734
0.004427785007
0.001308472862
6.519480915e-05
6.629685588e-07
7.250791714e-07
0.07446464439
0.06994636589
0.06242349773
0.0545986353
0.04749071833
0.04125988925
0.03575248935
0.0307380454
0.0259521016
0.02097008308
0.01551281223
0.009895803885
0.005292158628
0.002656433735
0.001457817658
0.0008489740358
0.0004863514036
0.0002612768077
0.0001339940735
7.153973088e-05
4.351752251e-05
2.983446912e-05
1.931642468e-05
8.350217266e-06
1.440368665e-06
3.182713371e-08
2.107203301e-12
0
0
0
0
2.135290278e-09
1.481680224e-07
5.434566153e-08
2.75256653e-08
4.819086863e-08
9.538463375e-08
2.187793835e-08
6.622281212e-07
1.451441567e-06
0.00672097693
0.008690403316
0.01090144408
0.01203183161
0.0125531861
0.01284894032
0.01307559233
0.01326416725
0.01314628597
0.01210059733
0.009389051217
0.005497421686
0.002250240695
0.0007613683828
0.0002916149521
0.0001211097018
4.799890234e-05
1.65087297e-05
4.780870194e-06
1.370286411e-06
4.916492836e-07
2.393383021e-07
1.213370883e-07
3.31977521e-08
1.351692203e-09
0
0
0
0
0
0
0
0
0
0
6.661338148e-16
1.110223025e-16
0
0
0
0.003137437839
0.002393850086
0.002392656884
0.002567498873
0.002876647881
0.003327499025
0.003964716913
0.004821068776
0.005645542072
0.005769477066
0.004625510194
0.002310957638
0.0006727979794
0.0001589885503
4.074933327e-05
9.713784604e-06
1.849225295e-06
2.449397402e-07
2.138751731e-08
1.901766522e-09
2.662184917e-10
6.967715294e-11
2.384403786e-11
3.643196855e-12
1.421085472e-14
0
0
0
0
0
0
0
0
0
0
0
0
0
0
0
0.002512809872
0.001419098678
0.001128378431
0.001078074981
0.001131823235
0.001294353151
0.001581173672
0.002014592372
0.002395733728
0.002253835072
0.00149217877
0.0005803231745
0.000123894197
1.935536485e-05
2.179108479e-06
1.585744206e-07
8.854910472e-09
3.498942247e-10
7.530087665e-12
1.4610535e-13
5.107025913e-15
7.771561172e-16
3.330669074e-16
0
0
0
0
0
0
0
0
0
0
0
0
0
0
0
0
0
0.002167336529
0.001076976741
0.0007414220577
0.0006213508925
0.0005871012135
0.0006167579378
0.0006894985157
0.0007654722694
0.0007559601157
0.0005706042778
0.000289448365
8.298965903e-05
1.166525282e-05
6.534423223e-07
1.741510647e-08
3.132337723e-10
4.637956685e-12
4.651834473e-14
0
0
0
0
0
0
0
0
0
0
0
0
0
0
0
0
0
0
0
0
0
0
0.001914074503
0.0008984731738
0.0005430662955
0.0003942493886
0.0003170740113
0.0002757633787
0.0002474267517
0.0002136699805
0.000160699331
9.11474398e-05
3.278224512e-05
5.68042203e-06
2.790862556e-07
3.392045644e-09
1.798905469e-11
7.094325127e-14
3.330669074e-16
0
0
0
0
0
0
0
0
0
0
0
0
0
0
0
0
0
0
0
0
0
0
0
0.001718121014
0.0007698549941
0.0004136064303
0.0002601701061
0.0001746300965
0.0001205115289
8.2164138e-05
5.136585129e-05
2.57672093e-05
8.718263364e-06
1.601282147e-06
9.199360729e-08
1.173650954e-09
2.875033545e-12
2.775557562e-15
0
0
0
0
0
0
0
0
0
0
0
0
0
0
0
0
0
0
0
0
0
0
0
0
0
0.001552297887
0.0006750745017
0.0003267626293
0.0001814706773
0.0001048523364
5.897109503e-05
2.851885965e-05
1.055602112e-05
2.591555446e-06
3.165555799e-07
1.68907025e-08
2.853471903e-10
9.582334926e-13
1.110223025e-16
0
0
0
0
0
0
0
0
0
0
0
0
0
0
0
0
0
0
0
0
0
0
0
0
0
0
0.001399216701
0.0006032071328
0.0002680282739
0.0001347388208
6.899501595e-05
3.087559082e-05
1.022928581e-05
1.966048199e-06
1.489611174e-07
3.948793736e-09
4.663525122e-11
2.021716128e-13
0
0
0
0
0
0
0
0
0
0
0
0
0
0
0
0
0
0
0
0
0
0
0
0
0
0
0
0
0.00125071346
0.0005447921343
0.0002261253569
0.0001044597432
4.76686539e-05
1.721626844e-05
3.826029077e-06
3.328642891e-07
6.764945382e-09
4.809930232e-11
1.547650896e-13
0
0
0
0
0
0
0
0
0
0
0
0
0
0
0
0
0
0
0
0
0
0
0
0
0
0
0
0
0
0.001103912798
0.000493964572
0.0001942271344
8.304951981e-05
3.323600252e-05
9.319134194e-06
1.187697234e-06
3.435299289e-08
2.909162911e-10
1.049937914e-12
2.109423747e-15
0
0
0
0
0
0
0
0
0
0
0
0
0
0
0
0
0
0
0
0
0
0
0
0
0
0
0
0
0
0.0009569616885
0.0004472158778
0.0001672440379
6.535123035e-05
2.162839742e-05
3.896681441e-06
1.774221361e-07
1.778265424e-09
7.492895193e-12
1.720845688e-14
0
0
0
0
0
0
0
0
0
0
0
0
0
0
0
0
0
0
0
0
0
0
0
0
0
0
0
0
0
0
0.0008077542832
0.0004011264976
0.0001402926819
4.795490885e-05
1.117179197e-05
7.58867573e-07
8.372364801e-09
3.346245503e-11
7.482903186e-14
0
0
0
0
0
0
0
0
0
0
0
0
0
0
0
0
0
0
0
0
0
0
0
0
0
0
0
0
0
0
0
0.0006546533613
0.0003506575988
0.0001113311391
2.983842275e-05
3.072879271e-06
3.543452265e-08
1.097957281e-10
1.884048473e-13
4.440892099e-16
0
0
0
0
0
0
0
0
0
0
0
0
0
0
0
0
0
0
0
0
0
0
0
0
0
0
0
0
0
0
0
0.0004986792107
0.000290496943
8.30937741e-05
1.262640622e-05
1.831950469e-07
3.981540653e-10
4.20663504e-13
0
0
0
0
0
0
0
0
0
0
0
0
0
0
0
0
0
0
0
0
0
0
0
0
0
0
0
0
0
0
0
0
0
0.0003446523933
0.00021602954
5.367848598e-05
1.736194412e-06
2.649814812e-09
1.734501431e-12
1.776356839e-15
0
0
0
0
0
0
0
0
0
0
0
0
0
0
0
0
0
0
0
0
0
0
0
0
0
0
0
0
0
0
0
0
0
0.0002030896461
0.0001342901872
2.302539011e-05
3.567180995e-08
2.056144144e-11
1.376676551e-14
0
0
0
0
0
0
0
0
0
0
0
0
0
0
0
0
0
0
0
0
0
0
0
0
0
0
0
0
0
0
0
0
0
0
9.000863717e-05
6.599921095e-05
3.202760008e-06
1.532141636e-09
9.180434191e-13
3.330669074e-16
0
0
0
0
0
0
0
0
0
0
0
0
0
0
0
0
0
0
0
0
0
0
0
0
0
0
0
0
0
0
0
0
0
0
2.143066543e-05
1.629255655e-05
6.019646692e-08
3.492905964e-11
2.442490654e-14
0
0
0
0
0
0
0
0
0
0
0
0
0
0
0
0
0
0
0
0
0
0
0
0
0
0
0
0
0
0
0
0
0
0
0
1.173384275e-06
7.746108639e-07
1.544299466e-09
8.621992009e-13
3.330669074e-16
0
0
0
0
0
0
0
0
0
0
0
0
0
0
0
0
0
0
0
0
0
0
0
0
0
0
0
0
0
0
0
0
0
0
0
4.352049832e-09
2.566654222e-09
8.188338896e-12
5.107025913e-15
0
0
0
0
0
0
0
0
0
0
0
0
0
0
0
0
0
0
0
0
0
0
0
0
0
0
0
0
0
0
0
0
0
0
0
0
9.6389563e-13
4.880540416e-13
3.330669074e-15
0
0
0
0
0
0
0
0
0
0
0
0
0
0
0
0
0
0
0
0
0
0
0
0
0
0
0
0
0
0
0
0
0
0
0
0
0
0
0
0
0
0
0
0
0
0
0
0
0
0
0
0
0
0
0
0
0
0
0
0
0
0
0
0
0
0
0
0
0
0
0
0
0
0
0
0
0
0
0
0
0
0
0
0
0
0
0
0
0
0
0
0
0
0
0
0
0
0
0
0
0
0
0
0
0
0
0
0
0
0
0
0
0
0
0
0
0
0
0
0
0
0
0
0
0
0
0
0
0
0
0
0
0
0
0
0
0
0
0
0
0
0
0
0
0
0
0
0
0
0
0
0
0
0
0
0
0
0
0
0
0
0
0
0
0
0
0
0
0
0
0
0
0
0
0
0
0
0
0
0
0
0
0
0
0
0
0
0
0
0
0
0
0
0
0
0
0
0
0
0
0
0
0
0
0
0
0
0
0
0
0
0
0
0
0
0
0
0
0
0
0
0
0
0
0
0
0
0
0
0
0
0
0
0
0
0
0
0
0
0
0
0
0
0
0
0
0
0
0
0
0
0
0
0
0
0
0
0
0
0
0
0
0
0
0
0
0
0
0
0
0
0
0
0
0
0
0
0
0
0
0
0
0
0
0
0
0
0
0
0
0
0
0
0
0
0
0
0
0
0
0
0
0
0
0
0
0
0
0
0
0
0
0
0
0
0
0
0
0
0
0
0
0
0
0
0
0
0
0
0
0
0
0
0
0
0
0
0
0
0
0
0
0
0
0
0
0
0
0
0
0
0
0
0
0
0
0
0
0
0
0
0
0
0
0
0
0
0
0
0
0
0
0
0
0
0
0
0
0
0
0
0
0
0
0
0
0
0
0
0
0
0
0
0
0
0
0
0
0
0
0
0
0
0
0
0
0
0
0
0
0
0
0
0
0
0
0
0
0
0
0
0
0
0
0
0
0
0
0
0
0
0
0
0
0
0
0
0
0
0
0
0
0
0
0
0
0
0
0
0
0
0
0
0
0
0
0
0
0
0
0
0
0
0
0
0
0
0
0
0
0
0
0
0
0
0
0
0
0
0
0
0
0
0
0
0
0
0
0
0
0
0
0
0
0
0
0
0
0
0
0
0
0
0
0
0
0
0
0
0
0
0
0
0
0
0
0
0
0
0
0
0
0
0
0
0
0
0
0
0
0
0
0
0
0
0
0
0
0
0
0
0
0
0
0
0
0
0
0
0
0
0
0
0
0
0
0
0
0
0
0
0
0
0
0
0
0
0
0
0
0
0
0
0
0
0
0
0
0
0
0
0
0
0
0
0
0
0
0
0
0
0
0
0
0
0
0
0
0
0
0
0
0
0
0
0
0
0
0
0
0
0
0
0
0
0
0
0
0
0
0
0
0
0
0
0
0
0
0
0
0
0
0
0
0
0
0
0
0
0
0
0
0
0
0
0
0
0
0
0
0
0
0
0
0
0
0
0
0
0
0
0
0
0
0
0
0
0
0
0
0
0
0
0
0
0
0
0
0
0
0
0
0
0
0
0
0
0
0
0
0
0
0
0
0
0
0
0
0
0
0
0
0
0
0
0
0
0
0
0
0
0
0
0
0
0
0
0
0
0
0
0
0
0
0
0
0
0
0
0
0
0
0
0
0
0
0
0
0
0
0
0
0
0
0
0
0
0
0
0
0
0
0
0
0
0
0
0
0
0
0
0
0
0
0
0
0
0
0
0
0
0
0
0
0
0
0
0
0
0
0
0
0
0
0
0
0
0
0
0
0
0
0
0
0
0
0
0
0
0
0
0
0
0
0
0
0
0
0
0
0
0
0
0
0
0
0
0
0
0
0
0
0
0
0
0
0
0
0
0
0
0
0
0
0
0
0
0
0
0
0
0
0
0
0
0
0
0
0
0
0
0
0
0
0
0
0
0
0
0
0
0
0
0
0
0
0
0
0
0
0
0
0
0
0
0
0
0
0
0
0
0
0
0
0
0
0
0
0
0
0
0
0
0
0
0
0
0
0
0
0
0
0
0
0
0
0
0
0
0
0
0
0
0
0
0
0
0
0
0
0
0
0
0
0
0
0
0
0
0
0
0
0
0
0
0
0
0
0
0
0
0
0
0
0
0
0
0
0
0
0
0
0
0
0
0
0
0
0
0
0
0
0
0
0
0
0
0
0
0
0
0
0
0
0
0
0
0
0
0
0
0
0
0
0
0
0
0
0
0
0
0
0
0
0
0
0
0
0
0
0
0
0
0
0
0
0
0
0
0
0
0
0
0
0
0
0
0
0
0
0
0
0
0
0
0
0
0
0
0
0
0
0
0
0
0
0
0
0
0
0
0
0
0
0
0
0
0
0
0
0
0
0
0
0
0
0
0
0
0
0
0
0
0
0
0
0
0
0
0
0
0
0
0
0
0
0
0
0
0
0
0
0
0
0
0
0
0
0
0
0
0
0
0
0
0
0
0
0
0
0
0
0
0
0
0
0
0
0
0
0
0
0
0
0
0
0
0
0
0
0
0
0
0
0
0
0
0
0
0
0
0
0
0
0
0
0
0
0
0
0
0
0
0
0
0
0
0
0
0
0
0
0
0
0
0
0
0
0
0
0
0
0
0
0
0
0
0
0
0
0
0
0
0
0
0
0
0
0
0
0
0
0
0
0
0
0
0
0
0
0
0
0
0
0
0
0
0
0
0
0
0
0
0
0
0
0
0
0
0
0
0
0
0
0
0
0
0
0
0
0
0
0
0
0
0
0
0
0
0
0
0
0
0
0
0
0
0
0
0
0
0
0
0
0
0
0
0
0
0
0
0
0
0
0
0
0
0
0
0
0
0
0
0
0
0
0
0
0
0
0
0
0
0
0
0
0
0
0
0
0
0
0
0
0
0
0
0
0
0
0
0
0
0
0
0
0
0
0
0
0
0
0
0
0
0
0
0
0
0
0
0
0
0
0
0
0
0
0
0
0
0
0
0
0
0
0
0
0
0
0
0
0
0
0
0
0
0
0
0
0
0
0
0
0
0
0
0
0
0
0
0
0
0
0
0
0
0
0
0
0
0
0
0
0
0
0
0
0
0
0
0
0
0
0
0
0
0
0
0
0
0
0
0
0
0
0
0
0
0
0
0
0
0
0
0
0
0
0
0
0
0
0
0
0
0
0
0
0
0
0
0
0
0
0
0
0
0
0
0
0
0
0
0
0
0
0
0
0
0
0
0
0
0
0
0
0
)
;

boundaryField
{
    front
    {
        type            wedge;
    }
    back
    {
        type            wedge;
    }
    tankWall
    {
        type            zeroGradient;
    }
    bottom
    {
        type            zeroGradient;
    }
    top
    {
        type            zeroGradient;
    }
    axis
    {
        type            empty;
    }
}


// ************************************************************************* //
