/*--------------------------------*- C++ -*----------------------------------*\
| =========                 |                                                 |
| \\      /  F ield         | OpenFOAM: The Open Source CFD Toolbox           |
|  \\    /   O peration     | Version:  v1912                                 |
|   \\  /    A nd           | Website:  www.openfoam.com                      |
|    \\/     M anipulation  |                                                 |
\*---------------------------------------------------------------------------*/
FoamFile
{
    version     2.0;
    format      ascii;
    class       volScalarField;
    location    "0.8";
    object      alpha.gas;
}
// * * * * * * * * * * * * * * * * * * * * * * * * * * * * * * * * * * * * * //

dimensions      [0 0 0 0 0 0 0];


internalField   nonuniform List<scalar> 
4800
(
4.549189138e-170
2.104943688e-170
1.460925243e-170
1.17240505e-170
1.009781954e-170
9.185676875e-171
8.670359897e-171
8.405131373e-171
8.319637306e-171
8.375186393e-171
8.544006167e-171
8.813569496e-171
8.420699056e-171
4.732599537e-167
1.225518075e-166
1.006299116e-166
4.779577766e-167
2.725786298e-166
5.055609852e-163
8.138741405e-160
8.133900751e-157
9.090045056e-154
2.534542908e-151
2.006276991e-148
1.174134808e-149
2.165795312e-136
1.019170344e-136
1.128102836e-138
1.89955707e-109
2.433697087e-107
2.291003239e-126
5.581979897e-81
7.171367797e-80
7.213334344e-80
5.348549624e-65
7.675976932e-83
1.258297661e-52
1.155510884e-69
5.299988544e-05
0.01056045002
1.062191029e-167
4.823820998e-168
3.331822361e-168
2.667988753e-168
2.295768414e-168
2.086670402e-168
1.968360975e-168
1.907297291e-168
1.887361222e-168
1.899638139e-168
1.937769016e-168
1.998963264e-168
1.916761834e-168
8.478668714e-165
2.444150228e-164
2.062717795e-164
9.9592014e-165
2.041107335e-164
3.260882895e-161
4.978463428e-158
3.739149236e-155
2.489537266e-152
2.86640485e-150
9.512896939e-147
1.166399697e-149
2.708977188e-135
1.612728444e-133
3.657898415e-135
0
7.208016548e-104
0
6.857331087e-80
0
3.095136934e-66
9.400766684e-64
7.683638395e-83
2.634687723e-51
0
0.0001923230324
0.015182634
1.159256331e-165
5.20382489e-166
3.579348774e-166
2.859961235e-166
2.458297986e-166
2.232049882e-166
2.103546512e-166
2.036661827e-166
2.013968374e-166
2.025773676e-166
2.065185241e-166
2.129215741e-166
2.046283939e-166
7.023104874e-163
2.272536892e-162
1.965390472e-162
9.630049101e-163
8.467734925e-163
9.659149254e-160
1.449099901e-156
8.800480601e-154
2.686556434e-151
6.71564164e-150
1.417838837e-144
2.321473751e-145
5.071294302e-151
1.497388997e-128
1.094483827e-128
1.209300677e-143
3.101491082e-100
2.619316928e-120
3.028537456e-78
0
1.896470244e-62
5.049033923e-61
5.868832946e-81
5.722772472e-49
0
0.0004211851837
0.02058354116
8.066564941e-164
3.588794927e-164
2.459284416e-164
1.960785405e-164
1.683460627e-164
1.526758296e-164
1.437347147e-164
1.390330668e-164
1.373667938e-164
1.380619691e-164
1.406402641e-164
1.44895152e-164
1.394586387e-164
3.654663033e-161
1.340829255e-160
1.187083308e-160
5.903851597e-161
3.038105065e-161
1.765229811e-158
2.661023239e-155
1.414377597e-152
1.480781346e-150
7.572591375e-151
1.445767766e-141
2.160311871e-142
5.727582701e-161
2.571629251e-124
1.276529662e-124
1.553173235e-143
2.266321071e-97
4.925343782e-116
6.131692412e-77
0
8.794667778e-60
7.842661538e-59
0
5.289420342e-47
7.738782602e-66
0.0007145893762
0.02562736459
4.039865804e-162
1.783672241e-162
1.218069672e-162
9.690998215e-163
8.31026449e-163
7.527417511e-163
7.07851633e-163
6.839863583e-163
6.751529616e-163
6.779771356e-163
6.900642211e-163
7.103772773e-163
6.842855767e-163
1.345278866e-159
5.659121611e-159
5.123425124e-159
2.586560905e-159
1.051734563e-159
2.214703815e-157
3.389226822e-154
1.652356838e-151
4.251527966e-150
7.5789282e-151
2.543380546e-140
5.671714584e-141
0
1.660923329e-121
5.911997903e-122
1.407310363e-140
3.251411929e-94
4.590544159e-113
6.701388723e-76
0
1.194472929e-57
4.42422002e-57
1.285118398e-75
2.3122752e-45
9.643637947e-70
0.00108451248
0.03004905564
1.553574083e-160
6.812171622e-161
4.636703342e-161
3.681141278e-161
3.152652086e-161
2.851930679e-161
2.678593922e-161
2.585407488e-161
2.54946617e-161
2.557803913e-161
2.60119271e-161
2.675603383e-161
2.577847683e-161
3.728439183e-158
1.820904583e-157
1.683742035e-157
8.628150253e-158
3.263163979e-158
2.023558562e-156
3.140858248e-153
1.426471026e-150
6.112715313e-150
7.788178236e-151
2.555898029e-140
2.356574782e-140
0
7.687758026e-120
3.275066251e-120
0
3.750681318e-91
1.419607043e-109
4.303191589e-75
0
4.836665154e-56
1.07781446e-55
2.644436544e-76
2.959714179e-44
6.757701743e-67
0.00142864266
0.03395562835
4.773471075e-159
2.079552107e-159
1.4108898e-159
1.117719585e-159
9.559643412e-160
8.635781572e-160
8.100440551e-160
7.809446412e-160
7.692885163e-160
7.710990619e-160
7.835236217e-160
8.053015744e-160
7.755627201e-160
8.074524305e-157
4.643085083e-156
4.378946292e-156
2.277009125e-156
8.506865613e-157
1.413044578e-155
2.177457859e-152
9.195303241e-150
8.616906209e-150
1.346546816e-147
1.508928994e-147
4.876269377e-137
1.01656771e-166
4.029352127e-119
1.158869125e-117
0
7.725882019e-89
0
1.632726995e-74
1.906254786e-93
5.386367251e-55
1.336224951e-54
0
5.896874275e-44
6.121573455e-65
0.001806121388
0.03739855292
1.203171357e-157
5.208678858e-158
3.522512685e-158
2.784417783e-158
2.378031244e-158
2.145034835e-158
2.009306793e-158
1.93474292e-158
1.903850102e-158
1.906635152e-158
1.935813579e-158
1.988123317e-158
1.912737084e-158
1.398670017e-155
9.624725267e-155
9.243392887e-155
4.874152237e-155
1.832428734e-155
8.136186498e-155
1.147191759e-151
4.475147411e-149
3.442698226e-149
4.377843796e-147
1.378745448e-157
3.109778891e-134
5.445980569e-134
0
2.808245891e-113
1.856212971e-132
5.006003764e-87
1.711821825e-106
4.186542674e-74
0
2.274358821e-54
7.869298588e-54
9.570491113e-73
5.917283912e-44
3.107966371e-64
0.002358109744
0.04039834009
2.53380053e-156
1.090049938e-156
7.347619708e-157
5.794681362e-157
4.941224243e-157
4.45000691e-157
4.16237318e-157
4.002798053e-157
3.934739266e-157
3.937233304e-157
3.99456318e-157
4.099617165e-157
3.937539241e-157
1.966384713e-154
1.651016936e-153
1.6115177e-153
8.607654675e-154
3.273640765e-154
4.58847829e-154
4.620743012e-151
1.664737248e-148
1.044324117e-148
1.329923015e-146
0
4.524271476e-132
8.83586224e-132
0
5.976501751e-109
0
2.110633342e-85
0
1.353477469e-73
0
5.478678496e-54
1.576817805e-53
8.937430367e-74
5.908343215e-44
0
0.002935203287
0.04307410707
4.516848778e-155
1.930750963e-155
1.297020672e-155
1.020402444e-155
8.686256644e-156
7.809309995e-156
7.293286701e-156
7.004532971e-156
6.878461035e-156
6.877848748e-156
6.973520185e-156
7.15226203e-156
6.853127508e-156
2.262539466e-153
2.374661134e-152
2.349512992e-152
1.26900763e-152
4.888408492e-153
3.240356275e-153
1.418131851e-150
4.812394732e-148
2.173071313e-148
6.31079309e-145
2.721850939e-159
2.284376381e-130
3.786817177e-130
5.178546023e-149
4.802844253e-105
3.297283465e-125
6.369782149e-84
0
5.595751914e-73
0
7.985902548e-54
1.577034193e-53
7.566632546e-73
5.901202822e-44
0
0.003503892371
0.04549651545
6.879767364e-154
2.92117452e-154
1.955305445e-154
1.534272584e-154
1.303590125e-154
1.169803626e-154
1.090728895e-154
1.046179624e-154
1.026398837e-154
1.025732698e-154
1.039457262e-154
1.065474649e-154
1.01772459e-154
2.137276215e-152
2.89439519e-151
2.890760902e-151
1.574963365e-151
6.143568368e-152
2.907247847e-152
3.274529002e-150
1.10163881e-147
5.884455144e-148
2.653237785e-143
8.542062986e-159
4.527710011e-129
7.37187103e-129
0
4.310054134e-102
2.727717624e-121
6.755939553e-83
0
6.464051608e-73
0
9.653627984e-54
1.559323033e-53
0
5.718936965e-44
0
0.004056132134
0.04771435424
9.012769688e-153
3.799636569e-153
2.533520155e-153
1.982350758e-153
1.680768655e-153
1.505247411e-153
1.401117412e-153
1.342204486e-153
1.31581158e-153
1.314531897e-153
1.331645635e-153
1.364342522e-153
1.298264169e-153
1.654370221e-151
3.017766524e-150
3.022230022e-150
1.654871746e-150
6.530510615e-151
2.730507263e-151
5.585347808e-150
1.906138663e-147
1.629005352e-146
2.465992592e-142
1.503011137e-158
3.805348426e-128
7.44098641e-128
0
7.379288542e-100
7.494107743e-119
2.22382189e-82
0
6.458474668e-73
0
9.6211742e-54
3.110586676e-72
5.550603878e-49
1.584258442e-45
0
0.004599671311
0.04975953387
1.02014172e-151
4.267581243e-152
2.833726069e-152
2.210437625e-152
1.869842998e-152
1.671000877e-152
1.552713445e-152
1.485741792e-152
1.455765845e-152
1.454374489e-152
1.47319651e-152
1.509207269e-152
1.430396234e-152
1.041211585e-150
2.707899626e-149
2.698051034e-149
1.476281624e-149
5.887402523e-150
2.410395473e-150
7.073992098e-150
5.714094612e-150
3.949139136e-141
1.588214513e-139
6.625004776e-157
1.609641794e-127
3.73388851e-127
0
4.587050895e-98
1.753273381e-116
2.250840706e-82
3.133576755e-101
6.459986819e-73
5.400642583e-92
9.611634716e-54
0
1.737189397e-47
1.632713991e-66
1.544450389e-06
0.005137833713
0.05165369962
1.000614677e-150
4.150515743e-151
2.743702586e-151
2.133164995e-151
1.800011668e-151
1.605032203e-151
1.488883425e-151
1.423382293e-151
1.394477797e-151
1.393902644e-151
1.412710341e-151
1.448707833e-151
1.369501334e-151
5.24360072e-150
2.074521746e-148
2.055193653e-148
1.117352803e-148
4.499306178e-149
1.966888399e-149
8.17394899e-150
5.53988506e-150
4.617392939e-136
3.648813858e-135
6.308157768e-153
6.692846216e-127
1.056998031e-126
1.128652297e-145
1.868057838e-96
2.681893391e-115
2.248656917e-82
2.679340148e-101
6.445381705e-73
6.293089546e-92
9.141603134e-54
3.609856125e-73
2.94648648e-47
1.31549274e-66
5.727691656e-06
0.005670660142
0.05341351156
8.520389906e-150
3.501418969e-150
2.303704036e-150
1.78489597e-150
1.502265094e-150
1.336593821e-150
1.237956696e-150
1.182919386e-150
1.15949741e-150
1.160796051e-150
1.179032158e-150
1.214223135e-150
1.151603267e-150
2.04965742e-149
1.29946002e-147
1.309218519e-147
7.177324843e-148
2.901388037e-148
1.476804689e-148
1.903097961e-149
5.547849451e-150
3.825708147e-132
3.800267081e-133
0
2.645997484e-126
1.209402108e-124
0
4.410531096e-95
1.891309041e-113
2.248187063e-82
2.179660377e-101
6.447056245e-73
1.705191116e-92
6.828616968e-54
4.75802676e-73
2.951076305e-47
0
1.240912709e-05
0.006201287033
0.05505348814
6.304699045e-149
2.56456105e-149
1.67913127e-149
1.296445537e-149
1.088403894e-149
9.664399949e-150
8.941005237e-150
8.546176223e-150
8.392511993e-150
8.43486016e-150
8.624301439e-150
8.994074007e-150
8.708628171e-150
5.826189771e-149
6.186052924e-147
6.622434694e-147
4.052417078e-147
1.5686333e-147
9.638882339e-148
8.275796295e-149
1.615374186e-146
6.876621097e-130
3.747854335e-133
1.188148695e-126
9.544664972e-145
1.079197733e-119
2.412222086e-138
3.275360085e-94
0
2.245588111e-82
1.221334891e-101
5.984789395e-73
0
3.266126523e-54
6.016586166e-74
2.95079891e-47
3.421329954e-68
2.115798047e-05
0.006733188515
0.05658713164
4.055069528e-148
1.631134492e-148
1.062831338e-148
8.178768124e-149
6.85119002e-149
6.075068985e-149
5.619665497e-149
5.383212915e-149
5.315498522e-149
5.398449515e-149
5.615049267e-149
6.045692999e-149
6.246084965e-149
9.851042949e-149
2.903967316e-146
2.839608107e-146
2.393574456e-146
7.089269789e-147
4.803139444e-147
0
5.450692042e-130
5.400673732e-129
2.079215093e-126
3.145703181e-123
0
9.625344926e-115
0
5.527664844e-94
0
2.239729043e-82
3.211119147e-101
4.036172046e-73
0
7.885792014e-55
2.276429877e-74
2.31721221e-47
2.589623888e-68
3.156197714e-05
0.007265909754
0.0580266251
2.265052954e-147
8.999489997e-148
5.837791436e-148
4.480330533e-148
3.748668935e-148
3.324674866e-148
3.083040079e-148
2.977140022e-148
2.990562258e-148
3.117200694e-148
3.35682592e-148
3.921593466e-148
4.657198044e-148
7.972769367e-151
5.559340376e-142
1.404928553e-142
3.466611361e-144
2.69352397e-146
1.822235943e-146
1.529680109e-164
1.60143533e-126
5.447883878e-129
1.47229549e-121
1.05189839e-121
0
8.248783072e-111
0
5.53173387e-94
9.87149888e-113
1.882901969e-82
2.765950062e-101
1.531864169e-73
0
7.066602022e-56
0
9.645967121e-48
2.742092864e-66
4.333837643e-05
0.007798136874
0.05938206165
1.096470818e-146
4.300395135e-147
2.781275295e-147
2.133008408e-147
1.786776229e-147
1.590241037e-147
1.49125568e-147
1.488014172e-147
1.567592517e-147
1.702861191e-147
1.939349991e-147
2.888123867e-147
3.743649513e-147
2.841175466e-153
7.823972582e-138
1.679306558e-138
2.961502168e-140
3.248694263e-143
1.285442011e-143
2.813687387e-162
1.614154176e-124
5.515354434e-129
9.216715784e-119
1.054534554e-121
1.261626999e-111
1.732227985e-108
1.326262524e-127
5.525025943e-94
0
1.114010464e-82
3.832797299e-102
2.464640705e-74
2.986985338e-93
1.643591257e-57
2.290743681e-77
1.498768065e-48
5.572260734e-72
5.643194084e-05
0.008329393932
0.06066162779
4.633566694e-146
1.797483446e-146
1.162785555e-146
8.931784256e-147
7.507290559e-147
6.780093279e-147
6.797298034e-147
7.626570888e-147
8.42628357e-147
9.105026745e-147
1.29525544e-146
3.088857378e-146
2.703501688e-146
2.544245314e-153
5.494398485e-135
1.081059457e-135
1.630992927e-137
2.368174093e-140
1.180211018e-140
5.049157215e-153
1.000402154e-123
4.162381616e-122
1.336354569e-117
1.157906491e-121
1.418895046e-108
1.403531887e-107
1.234659266e-116
5.518070407e-94
0
4.693229846e-83
1.978850005e-98
1.16971612e-75
1.910126877e-93
6.984204189e-60
2.335897817e-76
5.859171268e-50
2.711291581e-73
7.095295855e-05
0.008858879451
0.06187384247
1.841428631e-145
6.994202383e-146
4.488742384e-146
3.427121951e-146
2.936310064e-146
3.051636705e-146
4.387946762e-146
5.192352237e-146
4.803749288e-146
5.306315521e-146
2.685635154e-145
4.897462319e-144
1.215593156e-142
2.704461053e-153
3.343690522e-133
6.996860653e-134
1.449347478e-135
1.292563407e-136
8.088564166e-136
2.648591625e-134
4.124680058e-142
2.842142486e-119
5.136212676e-133
5.425631141e-110
2.017240633e-107
1.409913208e-107
9.96078669e-97
5.509041617e-94
2.245427805e-95
3.824202253e-102
6.306270935e-80
4.162069774e-78
0
3.789239426e-63
3.674190163e-85
3.863223971e-52
8.188030511e-71
8.681673611e-05
0.009386235312
0.06302753686
8.562123024e-145
2.945053393e-145
1.817769813e-145
1.473889763e-145
1.828851554e-145
4.437031834e-145
1.895258281e-144
1.150974538e-143
9.45146596e-143
1.089440126e-141
1.75495849e-140
3.701892853e-139
9.395699449e-138
2.498119716e-146
4.315831745e-132
1.312508157e-132
1.198316128e-132
9.863022938e-132
6.749282995e-131
1.168412897e-129
7.044902817e-149
2.312733688e-115
5.797895975e-120
2.248907275e-106
7.812703345e-114
3.935887083e-96
2.302777833e-95
5.223888671e-94
1.084391468e-94
0
4.654161236e-76
0
5.173646013e-67
0
1.03755465e-56
3.276425655e-55
5.759427612e-80
0.0001039978584
0.009911454382
0.06413065387
6.052016156e-142
6.578265892e-142
1.005706863e-141
2.130322155e-141
6.113552301e-141
2.299983336e-140
1.109590646e-139
6.937844681e-139
5.89047936e-138
7.095870626e-137
1.198765619e-135
2.642896657e-134
6.847161e-133
1.861470781e-131
4.613170106e-130
7.488670253e-129
8.646618032e-128
7.4002858e-127
5.081462201e-126
2.73628085e-125
1.585245548e-144
6.929242924e-113
1.01774176e-114
1.017388068e-104
2.692596576e-114
5.257215421e-93
2.320054603e-95
2.05594496e-90
3.386196435e-91
0
1.328535498e-73
2.381268226e-78
5.194870942e-67
1.08048687e-69
1.042385793e-56
9.420547071e-57
4.075684317e-78
0.0001231351359
0.01043456454
0.06519017153
3.641576977e-137
3.914983147e-137
5.880629217e-137
1.221460291e-136
3.444173485e-136
1.282134033e-135
6.194253611e-135
3.941659332e-134
3.465048589e-133
4.367375637e-132
7.744429957e-131
1.783010645e-129
4.792326371e-128
1.340179783e-126
3.197570972e-125
5.405774166e-124
6.175834657e-123
5.21252115e-122
3.510588901e-121
1.744994508e-120
0
1.318757862e-111
1.741967864e-113
0
1.51936721e-99
1.141661987e-91
2.48645413e-95
8.618380668e-86
1.436406467e-86
0
2.69195024e-72
0
2.431094082e-67
3.255116971e-87
7.090270377e-57
3.103164066e-57
9.530283694e-79
0.000144187331
0.01095592563
0.066211485
2.069933645e-132
2.199766801e-132
3.241119821e-132
6.58768865e-132
1.822925627e-131
6.716161554e-131
3.254298871e-130
2.112742464e-129
1.927343909e-128
2.544713685e-127
4.739347489e-126
1.138369771e-124
3.172520843e-123
9.085985715e-122
2.189543232e-120
3.680292289e-119
4.150404862e-118
3.452675267e-117
2.276171815e-116
1.082675009e-115
3.969148797e-129
3.174320246e-111
2.22797459e-110
6.150909048e-130
8.47422506e-98
1.26682454e-109
1.594824328e-84
5.707394184e-82
1.159215001e-82
0
7.491000628e-72
1.3171469e-70
2.756051462e-68
2.363871402e-87
1.450090772e-57
5.099116414e-58
1.034415169e-78
0.0001668690297
0.0114751043
0.06719706215
1.105983519e-127
1.162114998e-127
1.679357722e-127
3.339064266e-127
9.068814415e-127
3.310112819e-126
1.611877319e-125
1.070493041e-124
1.015468107e-123
1.406094779e-122
2.750950771e-121
6.886616581e-120
1.988048156e-118
5.82337548e-117
1.415853698e-115
2.361221279e-114
2.626587297e-113
2.152394543e-112
1.386857644e-111
6.29715626e-111
1.822008797e-110
3.191101346e-111
1.083132641e-105
1.510670183e-124
6.837627582e-93
4.792651187e-112
2.069087776e-79
2.741944392e-79
5.966327914e-80
1.007288414e-81
0
6.151714806e-66
5.08432124e-66
0
6.256951074e-58
4.231655699e-58
5.088445759e-77
0.0001910870895
0.01199130132
0.06814606317
5.543370347e-123
5.762080194e-123
8.172443323e-123
1.590648963e-122
4.24432314e-122
1.537137631e-121
7.540361069e-121
5.137056545e-120
5.076145881e-119
7.380006128e-118
1.516087872e-116
3.951995008e-115
1.180041615e-113
3.532265603e-112
8.650590824e-111
1.428335465e-109
1.566516227e-108
1.263605005e-107
7.943043675e-107
3.47463741e-106
9.654977161e-106
7.703222027e-106
2.267769995e-102
9.153819651e-121
5.274907937e-89
0
8.505151382e-76
4.926041522e-77
5.0595609e-78
4.212952695e-79
5.423931422e-98
3.160442387e-62
1.837726336e-62
4.715462018e-82
4.9038981e-56
1.567124983e-56
2.109517619e-76
0.0002180243281
0.01250253734
0.06905766802
2.604312773e-118
2.679804961e-118
3.734817245e-118
7.125317016e-118
1.870722279e-117
6.735661716e-117
3.337561666e-116
2.338927235e-115
2.411129114e-114
3.684793473e-113
7.939452301e-112
2.153541361e-110
6.638018994e-109
2.029789663e-107
4.994927666e-106
8.150032867e-105
8.810837667e-104
6.988526858e-103
4.276732666e-102
1.799355125e-101
4.82087228e-101
1.359728877e-100
1.582915884e-99
5.139442934e-118
1.418333027e-86
0
6.640560465e-74
1.757946386e-74
4.189883449e-74
1.361058785e-74
3.16350078e-93
9.375650846e-60
4.522866017e-60
0
8.247323594e-55
2.212357378e-55
3.2736869e-74
0.0002465136968
0.01300919188
0.06993384682
1.146680807e-113
1.168977803e-113
1.603335389e-113
3.003568448e-113
7.774412043e-113
2.789485619e-112
1.400371359e-111
1.012077088e-110
1.08983112e-109
1.752425728e-108
3.953436379e-107
1.115232145e-105
3.540524051e-104
1.105924696e-102
2.725544182e-101
4.388713183e-100
4.676030174e-99
3.641583535e-98
2.164384261e-97
8.743531451e-97
2.301284519e-96
7.137392965e-96
5.665898878e-95
0
2.379717042e-85
0
1.504413805e-73
9.234965972e-70
1.449435464e-69
4.713609164e-70
2.702318727e-85
2.198715208e-58
1.091781702e-58
2.490836877e-59
1.018700572e-54
7.893513691e-55
1.454100046e-74
0.0002762477651
0.01351108766
0.07077723564
4.732519007e-109
4.784020794e-109
6.468925236e-109
1.192474365e-108
3.050228318e-108
1.093596885e-107
5.579987467e-107
4.168361355e-106
4.694394338e-105
7.946289831e-104
1.873114292e-102
5.491270936e-101
1.791657196e-99
5.715936983e-98
1.405226995e-96
2.231545401e-95
2.342409123e-94
1.787535986e-93
1.029209026e-92
3.986073017e-92
1.038095044e-91
3.567132532e-91
3.183343421e-90
0
5.251757538e-85
1.953560315e-84
4.265369738e-92
7.472918599e-65
4.591417463e-65
1.429196551e-65
1.555577673e-81
4.905291553e-58
3.877167811e-58
1.424227669e-57
9.226024295e-55
1.668126121e-52
0
0.0003069294749
0.01400848257
0.07159097073
1.83138177e-104
1.837488595e-104
2.454430063e-104
4.463212676e-104
1.131336781e-103
4.065684767e-103
2.115344056e-102
1.636346265e-101
1.929799354e-100
3.437676528e-99
8.450396778e-98
2.571249883e-96
8.609243355e-95
2.802496894e-93
6.844656667e-92
1.072064815e-90
1.107632827e-89
8.262469617e-89
4.596487742e-88
1.704445833e-87
4.430141699e-87
1.721029025e-86
1.650078685e-85
1.313061844e-84
3.323511699e-93
4.166515316e-80
1.410628287e-98
3.68464352e-60
6.822004493e-61
1.671364086e-61
1.117184666e-65
4.890994252e-58
3.881021221e-58
4.68144148e-55
4.679570203e-55
7.264941167e-49
6.318294659e-68
0.000338107894
0.01450145896
0.07237896152
6.647800239e-100
6.626671214e-100
8.763315474e-100
1.576448768e-99
3.972717054e-99
1.435985185e-98
7.642342202e-98
6.13069953e-97
7.581739029e-96
1.41930384e-94
3.633010517e-93
1.144752635e-91
3.932353383e-90
1.302818663e-88
3.149897885e-87
4.868640663e-86
4.942559892e-85
3.594389524e-84
1.927100693e-83
6.835171555e-83
1.792155234e-82
8.013560385e-82
8.237156701e-81
6.063302787e-80
0
5.35025324e-76
1.317854913e-94
4.678516419e-57
6.807571572e-58
1.542022422e-58
1.053047082e-59
1.421249384e-58
5.148647811e-56
9.39095868e-54
4.71820898e-55
5.382328224e-46
7.484762751e-68
0.0003696637602
0.01499000035
0.07314454797
2.264690079e-95
2.24510236e-95
2.946546368e-95
5.260765523e-95
1.322912462e-94
4.827626719e-94
2.635383484e-93
2.195003105e-92
2.850299251e-91
5.592869531e-90
1.489630058e-88
4.84441058e-87
1.709203984e-85
5.737217077e-84
1.370071144e-82
2.090681388e-81
2.080013631e-80
1.470838739e-79
7.581879839e-79
2.571092139e-78
6.891354958e-78
3.598136556e-77
3.885028338e-76
2.6410039e-75
6.579418658e-75
1.937930006e-72
2.775377938e-91
2.15093188e-55
9.713316264e-56
2.901622124e-56
2.378335167e-57
1.42620932e-58
2.302254552e-54
7.574616045e-53
4.679570203e-55
9.314210966e-44
2.097343694e-68
0.0004003889707
0.01547344848
0.07388766903
7.245326663e-91
7.150481028e-91
9.338481862e-91
1.660891614e-90
4.185188888e-90
1.547802687e-89
8.686224724e-89
7.520576914e-88
1.026292442e-86
2.1036487e-85
5.828537087e-84
1.948282824e-82
7.075397145e-81
2.390596019e-79
5.636268954e-78
8.48794979e-77
8.248580373e-76
5.659172366e-75
2.798642392e-74
9.077223578e-74
2.527938087e-73
1.554408402e-72
1.728516711e-71
1.112883315e-70
4.210222694e-70
2.946296873e-69
1.238964812e-109
6.08659048e-55
8.290447644e-52
1.271142112e-52
1.582693612e-54
2.572449216e-57
1.556122378e-53
3.735573237e-52
4.71820898e-55
5.198209716e-42
1.409361457e-60
0.0004341386412
0.01594660622
0.07460441868
2.178763398e-86
2.142741512e-86
2.79282692e-86
4.968826308e-86
1.260398394e-85
4.741193627e-85
2.73985091e-84
2.469510757e-83
3.540682544e-82
7.554583096e-81
2.176451786e-79
7.448347038e-78
2.78996111e-76
9.416105732e-75
2.194916105e-73
3.255796137e-72
3.079814115e-71
2.047032393e-70
9.691511941e-70
3.011374479e-69
8.883707667e-69
6.436893004e-68
7.250480442e-67
4.511299257e-66
1.761808023e-65
5.150139726e-65
5.074582204e-65
1.351808447e-73
6.203911839e-47
8.742474257e-48
8.174282729e-50
1.013603291e-52
4.554649904e-53
4.101820013e-51
4.756847598e-55
1.190210408e-40
0
0.0004695922393
0.01640723639
0.07529315894
6.165608853e-82
6.048375391e-82
7.892783987e-82
1.411265432e-81
3.620943319e-81
1.389826963e-80
8.280590229e-80
7.783752761e-79
1.170229476e-77
2.591931853e-76
7.751772303e-75
2.709469343e-73
1.047078862e-71
3.50431671e-70
8.097322109e-69
1.178472347e-67
1.082042426e-66
6.962226931e-66
3.1486714e-65
9.40419118e-65
3.003296639e-64
2.543704822e-63
2.868511117e-62
1.7398061e-61
6.907386188e-61
1.947347866e-60
2.102021926e-60
5.005853508e-79
4.283943143e-42
5.42285503e-43
4.095525626e-45
3.070659972e-48
2.397844312e-50
4.719781204e-49
4.795486064e-55
1.282455564e-39
4.387233309e-61
0.000504047693
0.0168568072
0.07595459721
1.644437206e-77
1.610617816e-77
2.111526e-77
3.813662556e-77
9.943829114e-77
3.904312582e-76
2.401200463e-75
2.358228564e-74
3.703143535e-73
8.504270726e-72
2.630275682e-70
9.394122739e-69
3.733078696e-67
1.232765619e-65
2.830402274e-64
4.018889117e-63
3.576879518e-62
2.227309595e-61
9.597192201e-61
2.770782828e-60
9.796978814e-60
9.551929384e-59
1.071607595e-57
6.388890552e-57
2.579115689e-56
7.002869456e-56
8.415858344e-56
0
6.6141384e-38
7.989005029e-39
6.72444369e-41
5.360259953e-44
2.7695193e-46
3.456693134e-47
4.793596987e-55
7.0474519e-39
0
0.0005368228417
0.01729525848
0.07658992475
4.141506896e-73
4.053665717e-73
5.358571315e-73
9.827816729e-73
2.615245681e-72
1.052392894e-71
6.691909705e-71
6.873495645e-70
1.121234317e-68
2.671177411e-67
8.490187285e-66
3.110714993e-64
1.260906555e-62
4.104796586e-61
9.367415611e-60
1.289317455e-58
1.113162629e-57
6.704215261e-57
2.743450917e-56
7.720936218e-56
3.085980919e-55
3.398222887e-54
3.786162223e-53
2.234717503e-52
9.14229062e-52
2.382126007e-51
3.352388684e-51
0
3.314550157e-35
4.595975535e-36
6.214596105e-38
9.005335099e-41
3.902214351e-43
4.009559136e-45
4.832978118e-55
2.253777788e-38
3.529360483e-59
0.0005669620234
0.01772233203
0.0772007244
9.871223868e-69
9.664406209e-69
1.293001742e-68
2.420680278e-68
6.597304568e-68
2.725340635e-67
1.79587821e-66
1.927379025e-65
3.247355735e-64
8.036717644e-63
2.604210783e-61
9.853659703e-60
4.023312297e-58
1.296318599e-56
2.929812564e-55
3.887767508e-54
3.265146423e-53
1.898246166e-52
7.348396746e-52
2.039283775e-51
9.365912195e-51
1.144300144e-49
1.266932388e-48
7.436961293e-48
3.065474972e-47
7.750196582e-47
1.281955856e-46
3.28315175e-65
8.986664906e-34
2.671920461e-34
1.166349989e-35
6.209110899e-38
2.519625061e-40
2.343810926e-42
4.79360956e-55
3.726171795e-38
0
0.0005942269711
0.01813776319
0.07778906802
2.232143099e-64
2.187983618e-64
2.973585365e-64
5.710184334e-64
1.598295385e-63
6.791897698e-63
4.650257451e-62
5.194277042e-61
9.001375379e-60
2.315158712e-58
7.591142107e-57
2.986487455e-55
1.210249488e-53
3.89033198e-52
8.634592985e-51
1.102257171e-49
9.03785118e-49
5.049554971e-48
1.841212451e-47
5.112992569e-47
2.725886205e-46
3.651924081e-45
4.01676674e-44
2.348396852e-43
9.703734705e-43
2.432600308e-42
4.609011213e-42
0
2.576639119e-33
1.41814596e-31
3.649278538e-32
1.165391838e-33
4.7241087e-36
3.645348701e-38
6.060479716e-40
3.943992764e-38
2.026424766e-61
0.0006166922347
0.01854054568
0.07835783497
4.800540611e-60
4.715536336e-60
6.531899503e-60
1.292048521e-59
3.723188932e-59
1.632603105e-58
1.163584779e-57
1.343095865e-56
2.39159e-55
6.374218237e-54
2.106779287e-52
8.64377548e-51
3.431345391e-49
1.110421124e-47
2.389710613e-46
2.944047752e-45
2.361825569e-44
1.258614999e-43
4.304855893e-43
1.217543403e-42
7.563839089e-42
1.107677952e-40
1.205242552e-39
7.009065467e-39
2.90409926e-38
7.394707031e-38
1.557922465e-37
1.84188269e-37
6.151205189e-51
7.27170726e-27
1.843819452e-27
5.445382637e-29
1.75998823e-31
8.093170354e-34
2.184592187e-35
3.45093526e-37
0
0.0006344600049
0.01892835755
0.07891030628
9.842005908e-56
9.69647208e-56
1.372917585e-55
2.807762901e-55
8.35367525e-55
3.796187729e-54
2.814255808e-53
3.326387911e-52
6.103338802e-51
1.672239422e-49
5.587521072e-48
2.378996258e-46
9.19204064e-45
3.010960579e-43
6.193181174e-42
7.43115941e-41
5.819956466e-40
2.927156476e-39
9.36301143e-39
2.752294458e-38
1.991879675e-37
3.201018075e-36
3.413182646e-35
1.968750016e-34
8.266683233e-34
2.179282407e-33
5.045700012e-33
6.371046246e-33
0
8.81675667e-23
2.823684727e-23
1.237789818e-24
5.593549455e-27
1.356154469e-29
2.789725313e-31
3.971410776e-33
4.969933116e-54
0.0006493975726
0.01929723844
0.07944853459
1.927630488e-51
1.905966131e-51
2.764950677e-51
5.867826407e-51
1.810202e-50
8.564263412e-50
6.569716112e-49
7.885822444e-48
1.498640623e-46
4.165723196e-45
1.422565243e-43
6.19021894e-42
2.338411806e-40
7.728245073e-39
1.501901094e-37
1.778017359e-36
1.347549755e-35
6.316853244e-35
1.888062695e-34
5.89860177e-34
4.975548547e-33
8.811978713e-32
9.088035035e-31
5.186996097e-30
2.259930274e-29
6.222062988e-29
1.547691229e-28
2.010360584e-28
0
4.640311625e-20
1.932676674e-20
1.413238843e-21
1.369159901e-23
4.37977122e-26
4.672857883e-28
4.669931932e-30
0
0.0006610823645
0.01964487476
0.07997340525
3.614718543e-47
3.58746569e-47
5.342717996e-47
1.181948873e-46
3.803578903e-46
1.878404232e-45
1.475679435e-44
1.792031167e-43
3.541115213e-42
9.830291216e-41
3.487970006e-39
1.513442445e-37
5.68418788e-36
1.867110422e-34
3.419311445e-33
4.035749114e-32
2.914599396e-31
1.256701447e-30
3.518526167e-30
1.196300548e-29
1.185878648e-28
2.300896803e-27
2.265679077e-26
1.283032966e-25
5.987971747e-25
1.713780531e-24
4.436246718e-24
6.102465212e-24
0
1.990534168e-18
1.214591448e-18
1.959369683e-19
6.13289501e-21
5.339800451e-23
3.576481019e-25
1.78837455e-27
0
0.0006621192792
0.01997113475
0.08048473582
6.509776159e-43
6.480505923e-43
9.927849576e-43
2.303827143e-42
7.78588013e-42
4.004840853e-41
3.177004343e-40
3.918301932e-39
8.033314297e-38
2.199140585e-36
8.231830771e-35
3.460462273e-33
1.325697996e-31
4.217415285e-30
7.365913614e-29
8.66086682e-28
5.843976529e-27
2.288630644e-26
6.043046573e-26
2.290815742e-25
2.728832326e-24
5.653131045e-23
5.268517974e-22
3.013725147e-21
1.541916064e-20
4.521213215e-20
1.177872398e-19
1.759216191e-19
1.00164369e-20
1.855385257e-17
2.825685121e-17
1.816770123e-16
4.805961001e-17
6.848151166e-18
4.325817342e-19
4.969169618e-21
0
0.0006563372834
0.02027203735
0.08098108295
1.131467534e-38
1.127893158e-38
1.781803433e-38
4.371508413e-38
1.558584556e-37
8.274999334e-37
6.537921708e-36
8.284317483e-35
1.741407059e-33
4.691475862e-32
1.859958409e-30
7.395484713e-29
2.962731079e-27
8.845839643e-26
1.516466466e-24
1.743970744e-23
1.07714387e-22
3.78831006e-22
9.54840418e-22
4.133488011e-21
6.123277387e-20
1.294358702e-18
1.139907396e-17
6.94770375e-17
3.845864807e-16
1.137712985e-15
2.883659221e-15
1.751026215e-15
1.626278507e-16
2.056869926e-15
4.745792663e-13
8.669279097e-12
2.645735997e-12
5.062400448e-13
4.186697274e-14
6.000897857e-16
0
0.000655774356
0.02054697727
0.08145861172
1.912149072e-34
1.903749733e-34
3.111075821e-34
8.130763727e-34
3.053775424e-33
1.64774704e-32
1.287500392e-31
1.699639679e-30
3.584743718e-29
9.649305198e-28
3.986193936e-26
1.489703739e-24
6.298041736e-23
1.712712048e-21
2.996716406e-20
3.261022674e-19
1.810296863e-18
5.665508099e-18
1.388789304e-17
7.026168721e-17
1.339050583e-15
2.742971849e-14
2.298015694e-13
1.262138948e-12
3.647817265e-12
5.772932553e-12
5.697528227e-12
1.301457197e-12
1.394955562e-13
8.966524936e-11