/*--------------------------------*- C++ -*----------------------------------*\
| =========                 |                                                 |
| \\      /  F ield         | OpenFOAM: The Open Source CFD Toolbox           |
|  \\    /   O peration     | Version:  v1912                                 |
|   \\  /    A nd           | Website:  www.openfoam.com                      |
|    \\/     M anipulation  |                                                 |
\*---------------------------------------------------------------------------*/
FoamFile
{
    version     2.0;
    format      ascii;
    class       volScalarField;
    location    "0.8";
    object      iDmdt.gasAndLiquid;
}
// * * * * * * * * * * * * * * * * * * * * * * * * * * * * * * * * * * * * * //

dimensions      [1 -3 -1 0 0 0 0];


internalField   nonuniform List<scalar> 
4800
(
1.893848266e-169
8.76294854e-170
6.081867428e-170
4.88073998e-170
4.203726247e-170
3.823988603e-170
3.609448974e-170
3.499019915e-170
3.463412439e-170
3.486518746e-170
3.556776604e-170
3.668970335e-170
3.505400748e-170
1.970091039e-166
5.101561572e-166
4.188970055e-166
1.989602573e-166
1.134658418e-165
2.104472873e-162
3.387843876e-159
3.385799846e-156
3.783769203e-153
1.055004615e-150
8.351060328e-148
4.887250457e-149
9.014877043e-136
4.242137328e-136
4.695505872e-138
7.906370426e-109
1.013024912e-106
9.530472567e-126
2.331132308e-80
2.929445796e-79
3.255414427e-79
1.531553654e-64
6.087004875e-82
-5.21177047e-52
2.020881811e-68
-0.0005843760922
0.1081505485
5.061402092e-167
2.298566698e-167
1.587620662e-167
1.271299547e-167
1.093933119e-167
9.942946953e-168
9.379168687e-168
9.088162709e-168
8.993124681e-168
9.051574673e-168
9.233210307e-168
9.524732852e-168
9.132995372e-168
4.039891238e-164
1.164572844e-163
9.828227117e-164
4.745219767e-164
9.725096744e-164
1.553672189e-160
2.372004063e-157
1.781511419e-154
1.186123465e-151
1.365664335e-149
4.532252065e-146
5.557034057e-149
1.290609566e-134
7.683232496e-133
1.742637742e-134
0
3.433968144e-103
0
3.274827937e-79
0
1.564588894e-65
3.476129733e-63
6.013144708e-82
-5.124098733e-51
0
-0.0009951346405
0.2048531205
5.452909877e-165
2.447761831e-165
1.683640411e-165
1.345254332e-165
1.156318668e-165
1.049894004e-165
9.894457819e-166
9.579810048e-166
9.473020789e-166
9.528497246e-166
9.713817267e-166
1.001492742e-165
9.624785534e-166
3.303323863e-162
1.068881539e-161
9.244084638e-162
4.529390708e-162
3.982671662e-162
4.542990404e-159
6.815483124e-156
4.139040895e-153
1.263525063e-150
3.158416794e-149
6.668101232e-144
1.091771352e-144
2.384944991e-150
7.041815301e-128
5.146933244e-128
5.686679578e-143
1.458466634e-99
1.231316953e-119
1.426352823e-77
0
9.297940469e-62
1.985605553e-60
4.127795923e-80
-4.456234227e-49
0
-0.001937107804
0.2833676728
3.776713441e-163
1.680241298e-163
1.151411357e-163
9.180168755e-164
7.881742936e-164
7.148058381e-164
6.729421861e-164
6.50926922e-164
6.431225048e-164
6.463735774e-164
6.584405465e-164
6.783563459e-164
6.528995811e-164
1.710980385e-160
6.277224474e-160
5.557399563e-160
2.763896818e-160
1.422279132e-160
8.263776977e-158
1.245721199e-154
6.621126644e-152
6.931882245e-150
3.544848852e-150
6.767741704e-141
1.0112362e-141
2.6810016e-160
1.203710154e-123
5.974897324e-124
7.269446038e-143
1.060707139e-96
2.30457406e-115
2.8731053e-76
0
4.256672235e-59
3.176859726e-58
0
-7.940170046e-49
1.0208076e-64
-0.002754529892
0.3453452092
1.88166352e-161
8.307831762e-162
5.673400663e-162
4.513761692e-162
3.870647438e-162
3.506010617e-162
3.296914546e-162
3.185744076e-162
3.144585235e-162
3.157721021e-162
3.213997336e-162
3.308583685e-162
3.187038306e-162
6.265544581e-159
2.635675161e-158
2.386158625e-158
1.204640235e-158
4.898196077e-159
1.031431969e-156
1.578410448e-153
7.69514633e-151
1.979935405e-149
3.529439587e-150
1.184404672e-139
2.641146681e-140
0
7.733941888e-121
2.752761965e-121
6.55243784e-140
1.513809936e-93
2.136750014e-112
3.122976688e-75
0
5.725671451e-57
1.816469016e-56
8.186534807e-75
1.149992408e-45
1.180813416e-68
-0.003215484477
0.3877870051
7.198773246e-160
3.156528602e-160
2.14848396e-160
1.705705415e-160
1.460818281e-160
1.321470618e-160
1.24114805e-160
1.197963633e-160
1.181303694e-160
1.185160027e-160
1.20525651e-160
1.239725883e-160
1.194422348e-160
1.727524537e-157
8.436854604e-157
7.801261321e-157
3.997629143e-157
1.511885181e-157
9.375410298e-156
1.455180315e-152
6.608830742e-150
2.8319665e-149
3.608119828e-150
1.184072595e-139
1.091701929e-139
0
3.561164332e-119
1.517025754e-119
0
1.737161804e-90
6.573446278e-109
1.99465922e-74
0
2.300392578e-55
4.450520892e-55
1.638895164e-75
2.516312569e-44
7.730873078e-66
-0.003147722748
0.4183709599
2.200394372e-158
9.585917211e-159
6.503626616e-159
5.152215984e-159
4.406577815e-159
3.980702588e-159
3.733918233e-159
3.599765865e-159
3.546017305e-159
3.554341288e-159
3.611587695e-159
3.71194474e-159
3.574839249e-159
3.721799018e-156
2.140122834e-155
2.018354424e-155
1.049513299e-155
3.920917016e-156
6.512808019e-155
1.003588807e-151
4.238038332e-149
3.971384296e-149
6.20586668e-147
6.954063357e-147
2.24721417e-136
4.684655881e-166
1.856771155e-118
5.339935713e-117
0
3.559595857e-88
0
7.527869169e-74
8.733858929e-93
2.543805e-54
5.529736289e-54
0
6.494352224e-44
6.61320344e-64
-0.002999833711
0.4403008462
5.517246838e-157
2.388472054e-157
1.615264968e-157
1.276804077e-157
1.090450366e-157
9.836054965e-158
9.213631582e-158
8.871674562e-158
8.729966751e-158
8.74268206e-158
8.876415833e-158
9.116207745e-158
8.770466825e-158
6.41326178e-155
4.413143212e-154
4.238251594e-154
2.234856539e-154
8.401801317e-155
3.730442549e-154
5.259795734e-151
2.051788903e-148
1.578394703e-148
2.007089971e-146
6.320899184e-157
1.425641646e-133
2.496551327e-133
0
1.287232171e-112
8.507875896e-132
2.294346426e-86
7.843826167e-106
1.919964733e-73
0
1.066845487e-53
3.259662526e-53
5.696390867e-72
8.090512122e-44
3.118992905e-63
-0.00271172746
0.4560057354
1.155806057e-155
4.97229195e-156
3.351625684e-156
2.643242474e-156
2.253929941e-156
2.029853484e-156
1.898641246e-156
1.825842082e-156
1.794786862e-156
1.795912664e-156
1.822049891e-156
1.86995412e-156
1.796010941e-156
8.969097507e-154
7.530566912e-153
7.350329148e-153
3.926012722e-153
1.493112571e-153
2.09278327e-153
2.107466398e-150
7.592535687e-148
4.762857031e-148
6.065244911e-146
0
2.063211754e-131
4.02927512e-131
0
2.725086976e-108
0
9.622513093e-85
0
6.173902202e-73
0
2.552156568e-53
6.539340287e-53
5.220447022e-73
9.3051838e-44
0
-0.002439789629
0.4680957579
2.049531549e-154
8.760785343e-155
5.885214127e-155
4.630047053e-155
3.941348899e-155
3.543422485e-155
3.309263386e-155
3.178225718e-155
3.121002342e-155
3.120703058e-155
3.164088826e-155
3.245163475e-155
3.109412227e-155
1.026553862e-152
1.077415069e-151
1.065994018e-151
5.757530854e-152
2.217860227e-152
1.470122336e-152
6.433844808e-150
2.183270184e-147
9.858509308e-148
2.862929891e-144
1.234749094e-158
1.036256653e-129
1.717736327e-129
2.348924792e-148
2.178386371e-104
1.495417329e-124
2.888690454e-83
0
2.538816135e-72
0
3.69345347e-53
6.556166376e-53
4.323825886e-72
1.057923e-43
0
-0.002073404553
0.4779048421
3.10519019e-153
1.31846838e-153
8.825216792e-154
6.92487223e-154
5.883672742e-154
5.279810478e-154
4.922886546e-154
4.72178946e-154
4.632480651e-154
4.629440684e-154
4.691347401e-154
4.808731176e-154
4.59318422e-154
9.645844559e-152
1.306270768e-150
1.304617042e-150
7.107820779e-151
2.772562859e-151
1.312009184e-151
1.477736554e-149
4.971412418e-147
2.655449087e-147
1.197284936e-142
3.854533546e-158
2.043021941e-128
3.326248309e-128
0
1.94452602e-101
1.230552295e-120
3.047584275e-82
0
2.917016552e-72
0
4.433607405e-53
6.49008412e-53
0
1.109374483e-43
0
-0.001626995038
0.4861809659
4.046289828e-152
1.705841078e-152
1.137416145e-152
8.899670066e-153
7.545698244e-153
6.757672812e-153
6.290153923e-153
6.025631956e-153
5.907102849e-153
5.901312808e-153
5.978092589e-153
6.124824546e-153
5.828132411e-153
7.426684497e-151
1.354701592e-149
1.356691244e-149
7.428703949e-150
2.931505137e-150
1.225691397e-150
2.507157416e-149
8.556152897e-147
7.312031171e-146
1.106871665e-141
6.746146965e-158
1.707944638e-127
3.339587131e-127
0
3.311552406e-99
3.362847434e-118
9.978292383e-82
0
2.898817055e-72
0
4.387819393e-53
1.296302322e-71
3.056074131e-48
3.310676722e-45
0
-0.001092286422
0.4934037363
4.555461011e-151
1.90568646e-151
1.265394622e-151
9.870625268e-152
8.349673468e-152
7.461714483e-152
6.933468284e-152
6.634367386e-152
6.500464494e-152
6.494198671e-152
6.578187744e-152
6.738924165e-152
6.386957195e-152
4.649138474e-150
1.209098699e-148
1.204688834e-148
6.591575745e-149
2.628686242e-149
1.076212095e-149
3.158406762e-149
2.551197118e-149
1.763157114e-140
7.090686851e-139
2.957699818e-156
7.185940503e-127
1.666861058e-126
0
2.047520092e-97
7.825558391e-116
1.004569112e-81
1.398313095e-100
2.883874775e-72
2.402488009e-91
4.353456357e-53
0
9.39797464e-47
3.613846835e-66
1.22859941e-05
-0.0005205298287
0.499841846
4.444272206e-150
1.843459964e-150
1.2186166e-150
9.474420717e-151
7.994684271e-151
7.128647363e-151
6.612734771e-151
6.321769678e-151
6.193342994e-151
6.190734303e-151
6.274207419e-151
6.434020626e-151
6.082188893e-151
2.328749602e-149
9.21312232e-148
9.127191753e-148
4.962153485e-148
1.998115763e-148
8.734734549e-149
3.629913747e-149
2.460134306e-149
2.050442478e-135
1.620294093e-134
2.801137117e-152
2.971872578e-126
4.693300208e-126
5.011247539e-145
8.293801086e-96
1.190631569e-114
9.982273307e-82
1.189238837e-100
2.861827758e-72
2.785463786e-91
4.112541284e-53
1.505674658e-72
1.56694059e-46
3.062612699e-66
4.221805011e-05
8.417810603e-05
0.505698729
3.763951972e-149
1.546772999e-149
1.017671298e-149
7.884819598e-150
6.636254009e-150
5.904362354e-150
5.468594774e-150
5.225427559e-150
5.12191735e-150
5.12760531e-150
5.208108865e-150
5.363503239e-150
5.086845318e-150
9.053625428e-149
5.739839957e-147
5.782885963e-147
3.170229469e-147
1.281531926e-147
6.522919236e-148
8.40572244e-149
2.450377387e-149
1.689716028e-131
1.67845009e-132
0
1.168593569e-125
5.341104966e-124
0
1.947663277e-94
8.351415011e-113
9.926633938e-82
9.622752959e-101
2.847097323e-72
7.509395222e-92
3.05150584e-53
1.984344635e-72
1.543237066e-46
0
8.300219022e-05
0.0006828272128
0.5111182694
2.770056785e-148
1.126770011e-148
7.377430641e-149
5.696034176e-149
4.781957608e-149
4.246072013e-149
3.928214543e-149
3.754712745e-149
3.687164958e-149
3.705731882e-149
3.788919836e-149
3.951329729e-149
3.825884955e-149
2.55954168e-148
2.717607613e-146
2.909286363e-146
1.780240624e-146
6.890993588e-147
4.234312555e-147
3.635479167e-148
7.096108943e-146
3.020764518e-129
1.646334821e-132
5.219135808e-126
4.19255755e-144
4.740318983e-119
1.059519804e-137
1.438574948e-93
0
9.86176833e-82
5.362982515e-101
2.628641668e-72
0
1.449950716e-53
2.507914505e-73
1.518456161e-46
8.661332601e-68
0.0001269197863
0.001254456518
0.5162039559
1.771949082e-147
7.127556215e-148
4.644226179e-148
3.573835102e-148
2.993709501e-148
2.654552548e-148
2.455537409e-148
2.352194493e-148
2.322581414e-148
2.358799603e-148
2.45341218e-148
2.64154473e-148
2.729070687e-148
4.304119248e-148
1.268788472e-145
1.240656598e-145
1.045769755e-145
3.097325381e-146
2.098489905e-146
0
2.381365065e-129
2.359489975e-128
9.083741608e-126
1.374286109e-122
0
4.204928845e-114
0
2.414660522e-93
0
9.782882114e-82
1.402428798e-100
1.763145831e-72
0
3.478019215e-54
9.481529456e-74
1.173402989e-46
6.802574662e-68
0.0001689548023
0.001809938827
0.5210387905
9.843484747e-147
3.910987001e-147
2.536968289e-147
1.947035448e-147
1.629061824e-147
1.444793259e-147
1.339772899e-147
1.293738007e-147
1.29955496e-147
1.35456881e-147
1.458678345e-147
1.704071181e-147
2.023692282e-147
3.464366619e-150
2.415645163e-141
6.104635848e-142
1.506283705e-143
1.170358752e-145
7.917712181e-146
6.646498996e-164
6.958234621e-126
2.367089838e-128
6.397034731e-121
4.570393025e-121
0
3.583912509e-110
0
2.40329332e-93
4.288565083e-112
8.179690546e-82
1.201470031e-100
6.655312489e-73
0
3.096561654e-55
0
4.80666187e-47
7.456143869e-66
0.0002070699569
0.002349352761
0.5256647325
4.738863467e-146
1.858589344e-146
1.202034344e-146
9.218547444e-147
7.722116551e-147
6.872657328e-147
6.444789969e-147
6.430698633e-147
6.774517018e-147
7.358990417e-147
8.380866849e-147
1.248079966e-146
1.617766616e-146
1.227759229e-152
3.380939718e-137
7.256640956e-138
1.279716899e-139
1.403807517e-142
5.554548167e-143
1.215822533e-161
6.974898304e-124
2.383224954e-128
3.982598109e-118
4.55668841e-121
5.451509987e-111
7.484913116e-108
5.730664558e-127
2.387265904e-93
0
4.813124625e-82
1.655845201e-101
1.064939593e-73
1.288493608e-92
7.156124927e-57
9.519229412e-77
7.355245581e-48
1.561321793e-71
0.000242571118
0.002885979989
0.5301137961
1.991536413e-145
7.725661542e-146
4.997675048e-146
3.838868894e-146
3.226591987e-146
2.914012803e-146
2.92136856e-146
3.277728948e-146
3.62137143e-146
3.913012684e-146
5.566451521e-146
1.327437183e-145
1.161812932e-145
1.093358214e-152
2.361120821e-134
4.645612512e-135
7.008768345e-137
1.01765463e-139
5.071594814e-140
2.169715402e-152
4.298909188e-123
1.78865226e-121
5.742571461e-117
4.975753234e-121
6.097274595e-108
6.031243502e-107
5.305533907e-116
2.371178073e-93
0
2.016642061e-82
8.502424428e-98
5.026527699e-75
8.196441515e-93
3.021643214e-59
9.6913067e-76
2.831971646e-49
7.824330814e-73
0.0002732889097
0.003426624102
0.5344428399
7.870687062e-145
2.989467671e-145
1.918570259e-145
1.464801706e-145
1.255007713e-145
1.304282243e-145
1.875398481e-145
2.219162779e-145
2.053041298e-145
2.267788231e-145
1.147753106e-144
2.0929786e-143
5.194868454e-142
1.155740348e-152
1.428892832e-132
2.990004421e-133
6.1935161e-135
5.523495114e-136
3.45646516e-135
1.131815509e-133
1.762592714e-141
1.214533861e-118
2.194874096e-132
2.318569552e-109
8.620466832e-107
6.025153232e-107
4.256677485e-96
2.354249715e-93
9.595596994e-95
1.634207187e-101
2.694753349e-79
1.778711558e-77
0
1.629085833e-62
1.521450147e-84
1.840004181e-51
2.426163295e-70
0.0003004631452
0.003961277019
0.5386852441
3.63926322e-144
1.251765707e-144
7.726197974e-145
6.26451876e-145
7.77312608e-145
1.885833137e-144
8.055113176e-144
4.891710307e-143
4.016848264e-142
4.629995445e-141
7.458215908e-140
1.573196895e-138
3.992822176e-137
1.06158911e-145
1.834007247e-131
5.577416677e-132
5.092117446e-132
4.191162621e-131
2.868013549e-130
4.965016026e-129
2.993654515e-148
9.827796185e-115
2.463803331e-119
9.556815645e-106
3.320087511e-113
1.672620121e-95
9.786163809e-95
2.220028601e-93
4.608424737e-94
0
1.977855095e-75
0
2.19657019e-66
0
4.287622262e-56
1.538210554e-54
1.747406563e-79
0.0003303186567
0.004486541847
0.5428604068
2.557972224e-141
2.780385392e-141
4.250712299e-141
9.00390253e-141
2.583883414e-140
9.720676563e-140
4.689494504e-139
2.932097341e-138
2.489398347e-137
2.998741665e-136
5.065906886e-135
1.116845055e-133
2.893434567e-132
7.865939477e-131
1.949334007e-129
3.164356108e-128
3.653612238e-127
3.126958244e-126
2.147146726e-125
1.156206032e-124
6.698456353e-144
2.927990165e-112
4.300598355e-114
4.299192775e-104
1.137841199e-113
2.221655791e-92
9.804595939e-95
8.688653783e-90
1.431069563e-90
0
5.614649689e-73
1.006458747e-77
2.193797819e-66
4.587420404e-69
4.298000363e-56
4.359175215e-56
1.26588348e-77
0.0003811444129
0.004994864612
0.5469829923
1.530518812e-136
1.645420293e-136
2.47153674e-136
5.133542647e-136
1.447490569e-135
5.388347391e-135
2.603162783e-134
1.656458639e-133
1.456127077e-132
1.835263922e-131
3.254283609e-130
7.492178641e-129
2.013675366e-127
5.631136037e-126
1.343520786e-124
2.271302729e-123
2.594822816e-122
2.190065197e-121
1.474989079e-120
7.331706872e-120
0
5.541002564e-111
7.319363318e-113
0
6.384425346e-99
4.797463396e-91
1.044889078e-94
3.621851861e-85
6.036654618e-86
0
1.131364121e-71
0
1.021138491e-66
1.373430134e-86
2.916507644e-56
1.415672331e-56
3.024488746e-78
0.0004351530508
0.005488217509
0.5510524988
8.65065431e-132
9.193203578e-132
1.354506772e-131
2.753042719e-131
7.61799581e-131
2.806616667e-130
1.359903625e-129
8.828456899e-129
8.053490306e-128
1.063285867e-126
1.980230513e-125
4.756274645e-124
1.325485964e-122
3.796041199e-121
9.147494608e-120
1.537526691e-118
1.733903225e-117
1.442403612e-116
9.509018595e-116
4.52305079e-115
1.658199028e-128
1.326169944e-110
9.308313078e-110
2.56989439e-129
3.540737445e-97
5.293342131e-109
6.664191068e-84
2.385030586e-81
4.844411087e-82
0
3.130762089e-71
5.505240679e-70
1.151378395e-67
9.912106878e-87
5.949317369e-57
2.294349998e-57
3.346749043e-78
0.0004910751188
0.005958156142
0.5550273161
4.595944023e-127
4.829173283e-127
6.978502391e-127
1.3875119e-126
3.768367e-126
1.375416494e-125
6.69746533e-125
4.447828305e-124
4.219054278e-123
5.841810561e-122
1.142877197e-120
2.860927283e-119
8.25872014e-118
2.419061111e-116
5.881368302e-115
9.808144281e-114
1.091025315e-112
8.940478406e-112
5.760630946e-111
2.615686045e-110
7.568302106e-110
1.325559986e-110
4.499405532e-105
6.275691459e-124
2.840659609e-92
1.991197284e-111
8.596948327e-79
1.139337086e-78
2.479300443e-79
4.186034632e-81
0
2.55682145e-65
2.112513509e-65
0
2.559968962e-57
1.878382107e-57
1.676574421e-76
0.0005650723561
0.006401604594
0.5588566417
2.290466821e-122
2.380821861e-122
3.376713832e-122
6.572167427e-122
1.753606435e-121
6.35072876e-121
3.115215549e-120
2.1222368e-119
2.096987866e-118
3.048597699e-117
6.26251928e-116
1.63238528e-114
4.87400536e-113
1.458900934e-111
3.572760828e-110
5.898975631e-109
6.469526814e-108
5.21847609e-107
3.280333368e-106
1.434972231e-105
3.987427447e-105
3.181458208e-105
9.366338069e-102
3.780896777e-120
2.178880201e-88
0
3.513690493e-75
2.035236533e-76
2.090577401e-77
1.740907677e-78
2.241502742e-97
1.306180922e-61
7.594007846e-62
1.952935048e-81
2.000484917e-55
6.864799655e-56
7.072741914e-76
0.0006284386417
0.006866382153
0.5625660955
1.069936864e-117
1.100944789e-117
1.534354695e-117
2.927193364e-117
7.685010279e-117
2.766945924e-116
1.370984947e-115
9.607296452e-115
9.903406431e-114
1.513407942e-112
3.260706734e-111
8.844086454e-110
2.725948602e-108
8.335105392e-107
2.051031331e-105
3.346480093e-104
3.617722688e-103
2.869438224e-102
1.755985813e-101
7.388025837e-101
1.979452474e-100
5.583226773e-100
6.499949138e-99
2.110536998e-117
5.824858271e-86
0
2.727637765e-73
7.221552925e-74
1.721362442e-73
5.592327266e-74
1.299965714e-92
3.852977938e-59
1.858729876e-59
0
3.35397478e-54
9.56697568e-55
1.114986175e-73
0.000692152994
0.007318031389
0.5661865241
4.68396619e-113
4.775013663e-113
6.549166181e-113
1.2268422e-112
3.175447543e-112
1.139317312e-111
5.71931903e-111
4.133262736e-110
4.450565812e-109
7.156012699e-108
1.614288546e-106
4.553514924e-105
1.445522825e-103
4.515027956e-102
1.112673955e-100
1.791573981e-99
1.908804578e-98
1.486502106e-97
8.834984543e-97
3.569111686e-96
9.394021066e-96
2.913635606e-95
2.31305281e-94
0
9.716376098e-85
0
6.143747283e-73
3.771832963e-69
5.920670745e-69
1.925667607e-69
1.104145147e-84
8.984441859e-58
4.462114733e-58
1.018910351e-58
4.12946799e-54
3.370600154e-54
5.023520981e-74
0.0007563587022
0.007761516221
0.5697323848
1.922036141e-108
1.942938833e-108
2.62718459e-108
4.842789845e-108
1.238691703e-107
4.440879357e-107
2.265805887e-106
1.692505223e-105
1.905975735e-104
3.226071178e-103
7.604047969e-102
2.22907405e-100
7.272410939e-99
2.319980959e-97
5.70321117e-96
9.056450112e-95
9.506014518e-94
7.254023178e-93
4.17659017e-92
1.617573605e-91
4.212728051e-91
1.447639722e-90
1.291955206e-89
0
2.131757625e-84
7.930602187e-84
1.731766682e-91
3.034468196e-64
1.864679224e-64
5.805188226e-65
6.319649255e-81
1.992967491e-57
1.575843901e-57
5.789905986e-57
3.727578482e-54
7.035201409e-52
0
0.000819345047
0.008195795434
0.5732196297
7.395001653e-104
7.419602528e-104
9.910556469e-104
1.802110805e-103
4.567809607e-103
1.641451237e-102
8.539844321e-102
6.605653672e-101
7.78972259e-100
1.387529997e-98
3.410523562e-97
1.037659067e-95
3.474102137e-94
1.130815099e-92
2.761656167e-91
4.325278239e-90
4.468568575e-89
3.33324752e-88
1.854279623e-87
6.875921713e-87
1.787194546e-86
6.943163257e-86
6.657294307e-85
5.297993424e-84
1.341114703e-92
1.681486364e-79
5.693685075e-98
1.487458488e-59
2.75446446e-60
6.749558605e-61
4.512560541e-65
1.975743918e-57
1.568668187e-57
1.89128217e-54
1.884350218e-54
3.026589307e-48
2.237791652e-67
0.0008794710488
0.008616106917
0.5766714016
2.668825807e-99
2.660320976e-99
3.518012466e-99
6.328394968e-99
1.594707978e-98
5.76393073e-98
3.067372074e-97
2.460467969e-96
3.042575661e-95
5.695222935e-94
1.457684556e-92
4.592717686e-91
1.577511304e-89
5.225976104e-88
1.26341538e-86
1.952663772e-85
1.982196286e-84
1.441454115e-83
7.728016927e-83
2.740999949e-82
7.186874156e-82
3.213692467e-81
3.303548767e-80
2.431911941e-79
0
2.146426278e-75
5.287822768e-94
1.87756564e-56
2.732539012e-57
6.190945051e-58
4.228893209e-59
5.708011965e-58
2.069472974e-55
3.770024553e-53
1.893589469e-54
2.214961068e-45
2.680610139e-67
0.000936437019
0.009018412086
0.5800811135
9.03914114e-95
8.960880182e-95
1.176026105e-94
2.09959491e-94
5.279525457e-94
1.92650208e-93
1.051591248e-92
8.757932549e-92
1.137147765e-90
2.231097811e-89
5.941802669e-88
1.932128499e-86
6.81623734e-85
2.28775467e-83
5.462751598e-82
8.33528374e-81
8.29216965e-80
5.863312302e-79
3.022306597e-78
1.024876947e-77
2.747014963e-77
1.434323477e-76
1.548774746e-75
1.052930733e-74
2.623418135e-74
7.728230062e-72
1.106977514e-90
8.58085015e-55
3.875879799e-55
1.158108983e-55
9.4954524e-57
5.694551088e-58
9.202353898e-54
3.021451034e-52
1.871947084e-54
3.786231805e-43
7.589084563e-68
0.0009875817296
0.009393332043
0.5833678953
2.875057313e-90
2.837394165e-90
3.705515041e-90
6.590136234e-90
1.660513936e-89
6.140610004e-89
3.445800194e-88
2.983105704e-87
4.070457029e-86
8.342511399e-85
2.311174191e-83
7.724559103e-82
2.804925719e-80
9.476044357e-79
2.233910567e-77
3.363831816e-76
3.268689502e-75
2.242422096e-74
1.108894426e-73
3.596531186e-73
1.001604191e-72
6.158935995e-72
6.849169787e-71
4.410130507e-70
1.668624589e-69
1.167875487e-68
4.912024083e-109
2.413636613e-54
3.288419685e-51
5.043399906e-52
6.281806611e-54
1.021084945e-56
6.185430629e-53
1.480410087e-51
1.881414408e-54
2.087375807e-41
5.150716773e-60
0.001117968028
0.009692679106
0.5864717555
8.595351081e-86
8.453155489e-86
1.101741115e-85
1.960053199e-85
4.971565043e-85
1.869982468e-84
1.080526044e-83
9.738057431e-83
1.396037093e-81
2.978279431e-80
8.57919295e-79
2.935610191e-77
1.099455609e-75
3.710165518e-74
8.64739082e-73
1.282548868e-71
1.213100171e-70
8.062315317e-70
3.816792398e-69
1.185916801e-68
3.498469778e-68
2.534940533e-67
2.855487558e-66
1.77685683e-65
6.940053962e-65
2.029053698e-64
1.99968932e-64
5.328226773e-73
2.44600427e-46
3.447945924e-47
3.225242512e-49
3.99939666e-52
1.80040368e-52
1.614715668e-50
1.891226111e-54
4.720054615e-40
0
0.001180749438
0.01006031462
0.5894392491
2.418188526e-81
2.372182222e-81
3.095454391e-81
5.534506449e-81
1.41990655e-80
5.449530298e-80
3.246482137e-79
3.051321647e-78
4.586822648e-77
1.015785945e-75
3.037485605e-74
1.061524986e-72
4.101641653e-71
1.372508764e-69
3.170949662e-68
4.614322065e-67
4.236229834e-66
2.725448763e-65
1.232484567e-64
3.680876741e-64
1.175484104e-63
9.956081298e-63
1.122786826e-61
6.810479078e-61
2.704236428e-60
7.625135157e-60
8.232549377e-60
1.961051316e-78
1.678769861e-41
2.125808413e-42
1.606295825e-44
1.204304913e-47
9.42625083e-50
1.845187846e-48
1.901491737e-54
5.02082684e-39
1.633488671e-60
0.001236634832
0.01042395975
0.5922967046
6.411925984e-77
6.279982151e-77
8.232761378e-77
1.486841408e-76
3.876503688e-76
1.52190244e-75
9.358764343e-75
9.190027827e-74
1.442899949e-72
3.31308414e-71
1.024525083e-69
3.658483263e-68
1.453565498e-66
4.799227995e-65
1.101704128e-63
1.564059228e-62
1.391836379e-61
8.665816101e-61
3.73360517e-60
1.077839808e-59
3.810882344e-59
3.715539618e-58
4.168514813e-57
2.485446723e-56
1.00346736e-55
2.725103866e-55
3.275689374e-55
0
2.576010101e-37
3.112638905e-38
2.621511286e-40
2.089433235e-43
1.082793002e-45
1.341750055e-46
1.896181827e-54
2.72343619e-38
0
0.001286823984
0.01078587362
0.5950563751
1.605402169e-72
1.571330904e-72
2.077065104e-72
3.809153988e-72
1.013547695e-71
4.078122898e-71
2.592831905e-70
2.662783494e-69
4.342916411e-68
1.034448355e-66
3.287303241e-65
1.204192839e-63
4.880120764e-62
1.588369396e-60
3.624049637e-59
4.987156739e-58
4.305038612e-57
2.592389892e-56
1.060704475e-55
2.984867523e-55
1.192947682e-54
1.313621294e-53
1.46361397e-52
8.639314247e-52
3.534783118e-51
9.211851004e-51
1.296690399e-50
0
1.282902944e-34
1.779587654e-35
2.408034984e-37
3.488413596e-40
1.517445102e-42
1.544709457e-44
1.907829078e-54
8.595480803e-38
1.334683831e-58
0.001329327864
0.01115113502
0.5977365174
3.804073219e-68
3.724318604e-68
4.982533079e-68
9.327297061e-68
2.541797334e-67
1.049882176e-66
6.917228686e-66
7.422476173e-65
1.25034526e-63
3.09378631e-62
1.00229084e-60
3.791554636e-59
1.547759511e-57
4.985758918e-56
1.126577421e-54
1.494608071e-53
1.254995135e-52
7.29479671e-52
2.823488265e-51
7.834614852e-51
3.597931669e-50
4.395659335e-49
4.866750648e-48
2.856963005e-47
1.177751755e-46
2.978110628e-46
4.927211261e-46
1.262261162e-64
3.456429895e-33
1.028090928e-33
4.491659875e-35
2.389894954e-37
9.746287003e-40
8.959126681e-42
1.88877507e-54
1.402794839e-37
0
0.001363514218
0.01152170924
0.6003599022
8.551679341e-64
8.382368073e-64
1.139148754e-63
2.187329157e-63
6.121707897e-63
2.601036425e-62
1.78057783e-61
1.988508778e-60
3.445248401e-59
8.859183976e-58
2.904121802e-56
1.14224253e-54
4.627639305e-53
1.487158822e-51
3.299894511e-50
4.21145796e-49
3.452331778e-48
1.928445547e-47
7.030351673e-47
1.952009145e-46
1.040555531e-45
1.393958447e-44
1.533193659e-43
8.964116292e-43
3.704378514e-42
9.287833099e-42
1.76014632e-41
0
9.847021054e-33
5.421873732e-31
1.39665098e-31
4.456117335e-33
1.817974744e-35
1.381973123e-37
2.383704877e-39
1.466629607e-37
7.737558726e-61
0.001381205376
0.01188470083
0.6029492237
1.828398894e-59
1.795993222e-59
2.487644732e-59
4.920261649e-59
1.417657304e-58
6.215421667e-58
4.429038708e-57
5.111265193e-56
9.09929276e-55
2.424589045e-53
8.011481872e-52
3.286048673e-50
1.304090494e-48
4.21892791e-47
9.076775072e-46
1.117908893e-44
8.965839199e-44
4.776687433e-43
1.633411811e-42
4.618916729e-42
2.869029184e-41
4.201111186e-40
4.570947223e-39
2.658259727e-38
1.101489026e-37
2.805102349e-37
5.911050913e-37
6.99047013e-37
2.335570092e-50
2.762044681e-26
7.012639413e-27
2.067914929e-28
6.739544636e-31
3.041568921e-33
8.576961553e-35
1.2689529e-36
0
0.001396256654
0.01222686495
0.6055284852
3.726632152e-55
3.671461441e-55
5.198078274e-55
1.062957221e-54
3.162094639e-54
1.436721241e-53
1.064884064e-52
1.258382525e-51
2.308322262e-50
6.322750091e-49
2.112011727e-47
8.989455167e-46
3.47223393e-44
1.136990644e-42
2.337870007e-41
2.804275941e-40
2.195570613e-39
1.10394218e-38
3.530216864e-38
1.037486444e-37
7.507094584e-37
1.206258748e-35
1.286114878e-34
7.418291871e-34
3.115042325e-33
8.212838231e-33
1.90187454e-32
2.402064977e-32
0
3.326601707e-22
1.067215372e-22
4.666786518e-24
2.131879679e-26
5.050510966e-29
1.092810644e-30
1.446545772e-32
1.896255108e-53
0.001412380693
0.0125594173
0.6080735158
7.256216401e-51
7.1745308e-51
1.040726676e-50
2.208411603e-50
6.811877125e-50
3.222188397e-49
2.471232536e-48
2.965553146e-47
5.634229605e-46
1.565646376e-44
5.344797031e-43
2.324942731e-41
8.779466964e-40
2.900448206e-38
5.634580474e-37
6.667979937e-36
5.051804176e-35
2.36730937e-34
7.073534472e-34
2.209288757e-33
1.863155939e-32
3.299216681e-31
3.402216685e-30
1.941723811e-29
8.460008494e-29
2.329380501e-28
5.795034418e-28
7.528973905e-28
0
1.73878709e-19
7.259304254e-20
5.287429252e-21
5.194948504e-23
1.616092192e-25
1.824207507e-27
1.689733894e-29
0
0.001394065009
0.01287790295
0.6105591615
1.352746812e-46
1.342521924e-46
1.999239304e-46
4.422330048e-46
1.422908423e-45
7.025679208e-45
5.518097152e-44
6.699231205e-43
1.323385822e-41
3.672535732e-40
1.302607207e-38
5.649858683e-37
2.121109968e-35
6.964382105e-34
1.274872607e-32
1.504073855e-31
1.08579182e-30
4.679862758e-30
1.30981653e-29
4.452036352e-29
4.412161859e-28
8.559075418e-27
8.426969404e-26
4.771733644e-25
2.226920231e-24
6.373650457e-24
1.650046817e-23
2.270052776e-23
0
7.405450943e-18
4.535345454e-18
7.26935569e-19
2.317122234e-20
1.952591748e-22
1.388788673e-24
6.45071904e-27
0
0.001404792375
0.01317421232
0.6128983729
2.42195615e-42
2.411019056e-42
3.693294308e-42
8.56949385e-42
2.895610722e-41
1.489107543e-40
1.180996347e-39
1.456132437e-38
2.984372185e-37
8.16677785e-36
3.055762959e-34
1.284017404e-32
4.916835105e-31
1.563456004e-29
2.729373064e-28
3.207729775e-27
2.163482993e-26
8.469214738e-26
2.235446053e-25
8.47150208e-25
1.008858443e-23
2.089514411e-22
1.947012687e-21
1.113593677e-20
5.696977925e-20
1.670396963e-19
4.351986356e-19
6.499797175e-19
3.704119511e-20
6.849546939e-17
1.04990801e-16
6.678544613e-16
1.80889852e-16
2.483145831e-17
1.667616685e-18
1.790844551e-20
0
0.001326650562
0.01339807017
0.6151091562
4.185077709e-38
4.17177616e-38
6.589890399e-38
1.616564896e-37
5.762549649e-37
3.05882228e-36
2.416060329e-35
3.060460802e-34
6.430923779e-33
1.731840262e-31
6.862958762e-30
2.727548207e-28
1.092164425e-26
3.259290479e-25
5.584823065e-24
6.419719315e-23
3.963293058e-22
1.393260845e-21
3.510046041e-21
1.518706511e-20
2.248505361e-19
4.75020019e-18
4.181302736e-17
2.547575104e-16
1.409886747e-15
4.170424597e-15
1.057021631e-14
6.417077035e-15
5.96624562e-16
7.521210931e-15
1.758006817e-12
3.158415527e-11
9.938008145e-12
1.829056955e-12
1.595238201e-13
2.17677785e-15
0
0.001400548571
0.01372643486
0.6170266382
7.031482755e-34
7.000467155e-34
1.143910248e-33
2.989188794e-33
1.122476172e-32
6.055169801e-32
4.729953728e-31
6.241924229e-30
1.315987347e-28
3.540823926e-27
1.462073537e-25
5.461450564e-24
2.307876495e-22
6.273265508e-21
1.097100904e-19
1.193178788e-18
6.618554753e-18
2.069047369e-17
5.063985832e-17
2.556663178e-16
4.860428704e-15
9.931244425e-14
8.303227031e-13
4.554452107e-12
1.315629688e-11
2.082068059e-11
2.054770723e-11
4.690725041e-12
5.031933384e-13
3.228121854e-10
2.062002925e-08