/*--------------------------------*- C++ -*----------------------------------*\
| =========                 |                                                 |
| \\      /  F ield         | OpenFOAM: The Open Source CFD Toolbox           |
|  \\    /   O peration     | Version:  v1912                                 |
|   \\  /    A nd           | Website:  www.openfoam.com                      |
|    \\/     M anipulation  |                                                 |
\*---------------------------------------------------------------------------*/
FoamFile
{
    version     2.0;
    format      ascii;
    class       volScalarField;
    location    "0.8";
    object      k.gas_0;
}
// * * * * * * * * * * * * * * * * * * * * * * * * * * * * * * * * * * * * * //

dimensions      [0 2 -2 0 0 0 0];


internalField   nonuniform List<scalar> 
4800
(
4.181019838e-07
5.719415383e-07
6.550614642e-07
7.135758117e-07
7.61913927e-07
8.060829313e-07
8.493981453e-07
8.940115142e-07
9.414935333e-07
9.931018565e-07
1.049921027e-06
1.112942472e-06
1.183113974e-06
1.261372559e-06
1.348668211e-06
1.445982673e-06
1.554346197e-06
1.674854338e-06
1.808686647e-06
1.957129005e-06
2.121601435e-06
2.303693452e-06
2.505209324e-06
2.728226199e-06
2.975169096e-06
3.248907625e-06
3.55288129e-06
3.891263764e-06
4.269186152e-06
4.693008976e-06
5.170869904e-06
5.712727743e-06
6.331962227e-06
7.058044055e-06
7.817534749e-06
9.157943017e-06
9.245242169e-06
1.328231218e-05
7.977972249e-06
2.820733407e-05
1.042915522e-06
1.45217317e-06
1.678674667e-06
1.833293405e-06
1.950349558e-06
2.043963436e-06
2.12152631e-06
2.187418317e-06
2.244452519e-06
2.294544648e-06
2.339059634e-06
2.379006138e-06
2.415152808e-06
2.448101391e-06
2.478334694e-06
2.506249199e-06
2.532177955e-06
2.556407102e-06
2.579188123e-06
2.600747154e-06
2.62129227e-06
2.641019334e-06
2.66011688e-06
2.678770343e-06
2.697165906e-06
2.715494125e-06
2.733953643e-06
2.752754038e-06
2.772126968e-06
2.792266919e-06
2.81377301e-06
2.8349471e-06
2.865884429e-06
2.865237468e-06
2.98297564e-06
2.741807749e-06
3.514353955e-06
1.877045587e-06
1.060553635e-05
6.019168236e-05
9.880781097e-07
1.374362057e-06
1.588177255e-06
1.734260451e-06
1.845048652e-06
1.933853693e-06
2.007629998e-06
2.070492205e-06
2.12507802e-06
2.173179705e-06
2.216070239e-06
2.254685993e-06
2.289735668e-06
2.321768583e-06
2.351219273e-06
2.378437631e-06
2.403709877e-06
2.427273518e-06
2.449328263e-06
2.470044139e-06
2.489567656e-06
2.508026566e-06
2.525533637e-06
2.542189711e-06
2.558086306e-06
2.573307947e-06
2.587934392e-06
2.602042647e-06
2.61571273e-06
2.629005083e-06
2.642162742e-06
2.654271262e-06
2.671438359e-06
2.662688099e-06
2.771744219e-06
2.41804016e-06
3.630837135e-06
6.421089393e-07
1.219040315e-05
7.90245979e-05
9.924587534e-07
1.380932169e-06
1.595991652e-06
1.742908365e-06
1.854304286e-06
1.943571451e-06
2.017708076e-06
2.080855449e-06
2.135668741e-06
2.183952247e-06
2.226987591e-06
2.265717586e-06
2.300855887e-06
2.332955744e-06
2.362454919e-06
2.389706042e-06
2.414997736e-06
2.438569702e-06
2.460623711e-06
2.481331802e-06
2.500842495e-06
2.519285601e-06
2.536776037e-06
2.553416935e-06
2.569302282e-06
2.584519323e-06
2.599150801e-06
2.613277291e-06
2.626980102e-06
2.640344206e-06
2.653465189e-06
2.666395853e-06
2.680014658e-06
2.687067563e-06
2.742946472e-06
2.524139033e-06
3.530870126e-06
5.730056581e-07
2.013320219e-05
9.526072213e-05
9.919813863e-07
1.380189897e-06
1.595111633e-06
1.741935127e-06
1.853264748e-06
1.942483323e-06
2.016583964e-06
2.079704781e-06
2.134498863e-06
2.182768995e-06
2.225795644e-06
2.26452069e-06
2.299656989e-06
2.331757079e-06
2.361258051e-06
2.388511884e-06
2.413806553e-06
2.437381089e-06
2.459436567e-06
2.480144278e-06
2.499651925e-06
2.518088407e-06
2.535567595e-06
2.552191375e-06
2.568052198e-06
2.583235357e-06
2.59782102e-06
2.611886351e-06
2.625506201e-06
2.638767489e-06
2.651695355e-06
2.664638008e-06
2.677023355e-06
2.68713869e-06
2.729246868e-06
2.572469392e-06
3.211834807e-06
1.25357414e-06
1.659316076e-05
0.0001105498304
9.919160661e-07
1.38010872e-06
1.595040202e-06
1.741870189e-06
1.853206569e-06
1.942432322e-06
2.016540587e-06
2.079669468e-06
2.134472015e-06
2.182750916e-06
2.225786494e-06
2.264520437e-06
2.299665369e-06
2.331773551e-06
2.361281761e-06
2.388541627e-06
2.413840737e-06
2.437417702e-06
2.459473135e-06
2.480177826e-06
2.499678923e-06
2.5181047e-06
2.535568307e-06
2.552170768e-06
2.568003451e-06
2.583150231e-06
2.597689428e-06
2.611695636e-06
2.625239632e-06
2.638405759e-06
2.651186096e-06
2.664093222e-06
2.675469618e-06
2.689303122e-06
2.711863738e-06
2.629915932e-06
3.064717051e-06
2.636023207e-06
1.097281186e-05
0.0001262355365
9.918104234e-07
1.379959722e-06
1.594887414e-06
1.741714699e-06
1.853051399e-06
1.942279739e-06
2.016392375e-06
2.07952708e-06
2.134336634e-06
2.182623458e-06
2.225667591e-06
2.264410411e-06
2.299564197e-06
2.331680831e-06
2.36119667e-06
2.388462886e-06
2.41376657e-06
2.437345799e-06
2.459400611e-06
2.480101173e-06
2.499593956e-06
2.518006487e-06
2.535451069e-06
2.552027751e-06
2.567826727e-06
2.582930374e-06
2.597415147e-06
2.611353111e-06
2.624812147e-06
2.637870566e-06
2.65050037e-06
2.663455506e-06
2.672793586e-06
2.696785501e-06
2.677308728e-06
2.706601219e-06
2.951810782e-06
1.381404949e-06
1.857048568e-05
0.0001411546633
9.917045132e-07
1.379811956e-06
1.594739857e-06
1.741567285e-06
1.852906775e-06
1.942139948e-06
2.016259064e-06
2.079401627e-06
2.13422017e-06
2.182516853e-06
2.225571425e-06
2.264324929e-06
2.299489266e-06
2.331615892e-06
2.361140694e-06
2.388414328e-06
2.413723328e-06
2.437305168e-06
2.459359246e-06
2.480055042e-06
2.499538293e-06
2.517935733e-06
2.535358791e-06
2.55190654e-06
2.567668063e-06
2.582724374e-06
2.597150251e-06
2.611015822e-06
2.624385633e-06
2.637342123e-06
2.649780471e-06
2.663069032e-06
2.668673275e-06
2.713918476e-06
2.585381324e-06
3.065876979e-06
1.799334877e-06
2.950992627e-06
5.917253226e-05
0.0001581413353
9.915943164e-07
1.37965829e-06
1.594588522e-06
1.741417667e-06
1.852761512e-06
1.942001111e-06
2.016128349e-06
2.079280473e-06
2.134109774e-06
2.182418141e-06
2.22548501e-06
2.264251057e-06
2.299427764e-06
2.331566112e-06
2.36110146e-06
2.388383886e-06
2.413699297e-06
2.437284498e-06
2.459338177e-06
2.480029066e-06
2.499502115e-06
2.517883223e-06
2.535282936e-06
2.551799372e-06
2.567520583e-06
2.582526428e-06
2.596890215e-06
2.610680866e-06
2.623957527e-06
2.636832167e-06
2.648946957e-06
2.663383499e-06
2.661586217e-06
2.739458389e-06
2.4930143e-06
3.308555491e-06
1.057669121e-06
8.243199114e-06
8.408441448e-05
0.0001763322228
9.914799683e-07
1.379499292e-06
1.594434249e-06
1.741266907e-06
1.852616876e-06
1.941864691e-06
2.016001898e-06
2.079165502e-06
2.134007564e-06
2.182329696e-06
2.225411e-06
2.264191759e-06
2.299382994e-06
2.331535163e-06
2.361083041e-06
2.388376064e-06
2.413699446e-06
2.437289258e-06
2.459343411e-06
2.480029832e-06
2.499492634e-06
2.51785686e-06
2.535232172e-06
2.551715774e-06
2.567394791e-06
2.582348138e-06
2.596647961e-06
2.610362254e-06
2.623546218e-06
2.636337488e-06
2.648157751e-06
2.663581779e-06
2.655868663e-06
2.753968841e-06
2.472465617e-06
3.253828606e-06
1.222587229e-06
9.62609629e-07
0.0001107132432
0.0001957380929
9.913612394e-07
1.37933484e-06
1.594276944e-06
1.741114967e-06
1.852472906e-06
1.941730834e-06
2.01587999e-06
2.079057165e-06
2.133914195e-06
2.182252413e-06
2.225350573e-06
2.264148532e-06
2.299356815e-06
2.331525305e-06
2.361088137e-06
2.388394039e-06
2.41372747e-06
2.437323693e-06
2.459379782e-06
2.480062797e-06
2.499515973e-06
2.51786347e-06
2.535214073e-06
2.551664128e-06
2.567299931e-06
2.582199612e-06
2.596434523e-06
2.610071873e-06
2.623165986e-06
2.635853315e-06
2.647596334e-06
2.662426679e-06
2.657978782e-06
2.740232682e-06
2.487756721e-06
3.391228782e-06
1.135984793e-07
9.496991999e-06
0.0001369113684
0.0002160977303
9.912379683e-07
1.379164972e-06
1.594116697e-06
1.74096202e-06
1.852329873e-06
1.941599933e-06
2.015763176e-06
2.078956205e-06
2.133830643e-06
2.182187545e-06
2.2253053e-06
2.264123315e-06
2.299351576e-06
2.331539344e-06
2.361120051e-06
2.388441658e-06
2.413787794e-06
2.437392848e-06
2.459452982e-06
2.480134333e-06
2.49957921e-06
2.517910863e-06
2.535237206e-06
2.551653779e-06
2.567246123e-06
2.582091702e-06
2.596261431e-06
2.609821866e-06
2.62282951e-06
2.635395013e-06
2.647214789e-06
2.660543727e-06
2.663985044e-06
2.709278038e-06
2.595821852e-06
2.99462354e-06
1.319008683e-06
2.176322671e-05
0.0001637703995
0.0002375187395
9.911100163e-07
1.378989798e-06
1.593953662e-06
1.740808302e-06
1.852188113e-06
1.941472452e-06
2.015652087e-06
2.078863462e-06
2.133758005e-06
2.182136495e-06
2.225276942e-06
2.264118278e-06
2.299369909e-06
2.331580423e-06
2.361182491e-06
2.388523236e-06
2.413885384e-06
2.437502372e-06
2.459569382e-06
2.480251555e-06
2.499690219e-06
2.518007681e-06
2.535310979e-06
2.551694887e-06
2.567244226e-06
2.582035918e-06
2.596140683e-06
2.609624731e-06
2.622547598e-06
2.634990444e-06
2.646886719e-06
2.658913269e-06
2.668387773e-06
2.688368264e-06
2.651921851e-06
2.868550926e-06
1.693636308e-06
3.650908208e-06
0.0001914582756
0.0002600912191
9.909772717e-07
1.37880951e-06
1.593788066e-06
1.740654121e-06
1.852048039e-06
1.94134894e-06
2.015547448e-06
2.078779891e-06
2.133697518e-06
2.182100837e-06
2.225267473e-06
2.264135852e-06
2.299414763e-06
2.331652069e-06
2.361279615e-06
2.388643614e-06
2.414025809e-06
2.437658604e-06
2.459736116e-06
2.480422416e-06
2.499857782e-06
2.518163526e-06
2.535445801e-06
2.551798587e-06
2.567306041e-06
2.582044671e-06
2.596085083e-06
2.60949351e-06
2.622331276e-06
2.634665273e-06
2.64654699e-06
2.65786301e-06
2.670539571e-06
2.675144989e-06
2.693082306e-06
2.792515617e-06
1.172651919e-06
1.018098786e-05
0.0002203298592
0.0002837259033
9.90839649e-07
1.378624381e-06
1.593620203e-06
1.740499857e-06
1.851910134e-06
1.941230021e-06
2.015450075e-06
2.078706554e-06
2.133650551e-06
2.182082316e-06
2.225279079e-06
2.264178737e-06
2.29948942e-06
2.33175821e-06
2.361416062e-06
2.388808198e-06
2.414215295e-06
2.437868631e-06
2.459961166e-06
2.48065581e-06
2.50009171e-06
2.518389118e-06
2.535653241e-06
2.551977196e-06
2.567444567e-06
2.582131537e-06
2.59610862e-06
2.609442045e-06
2.622196319e-06
2.634417464e-06
2.646323763e-06
2.656709814e-06
2.673808164e-06
2.656708372e-06
2.762200755e-06
2.547611965e-06
1.70473308e-06
1.789189371e-05
0.0002496991667
0.0003083989357
9.906970891e-07
1.378434774e-06
1.593450441e-06
1.740345951e-06
1.851774945e-06
1.941116389e-06
2.015360861e-06
2.078644611e-06
2.133618605e-06
2.182082846e-06
2.225314165e-06
2.264249908e-06
2.299597505e-06
2.331903201e-06
2.361596987e-06
2.389023012e-06
2.41446079e-06
2.438140373e-06
2.460253457e-06
2.480961689e-06
2.500402985e-06
2.51869645e-06
2.535946218e-06
2.552244506e-06
2.567674342e-06
2.582311627e-06
2.59622682e-06
2.609486312e-06
2.622156913e-06
2.634275251e-06
2.646135154e-06
2.656052726e-06
2.67534301e-06
2.644189243e-06
2.806423219e-06
2.536991477e-06
4.724558032e-06
2.65986108e-05
0.0002796147082
0.000334171297
9.905495599e-07
1.378241147e-06
1.59327922e-06
1.740192912e-06
1.851643082e-06
1.941008804e-06
2.015280773e-06
2.078595316e-06
2.133603304e-06
2.182104507e-06
2.225375359e-06
2.264352632e-06
2.299743016e-06
2.332091859e-06
2.361828111e-06
2.389294756e-06
2.414770043e-06
2.43848268e-06
2.460622983e-06
2.481351208e-06
2.500803926e-06
2.519098965e-06
2.536339253e-06
2.552616094e-06
2.568011839e-06
2.582602039e-06
2.596457249e-06
2.609643918e-06
2.622233469e-06
2.634231097e-06
2.646186687e-06
2.654754671e-06
2.680366737e-06
2.62132668e-06
2.888150997e-06
2.378076026e-06
1.861078063e-08
3.73020218e-05
0.0003101774742
0.0003612147106
9.903970571e-07
1.378044059e-06
1.593107051e-06
1.740041305e-06
1.851515206e-06
1.940908079e-06
2.015210848e-06
2.078560006e-06
2.13360639e-06
2.182149546e-06
2.225465515e-06
2.264490478e-06
2.299930343e-06
2.332329499e-06
2.362115773e-06
2.389630884e-06
2.415151698e-06
2.438905456e-06
2.461080951e-06
2.481836907e-06
2.501308398e-06
2.519611804e-06
2.536848781e-06
2.553109604e-06
2.568475786e-06
2.583022359e-06
2.596820012e-06
2.609935213e-06
2.622446406e-06
2.634304883e-06
2.646504167e-06
2.652693637e-06
2.690474169e-06
2.578272243e-06
3.020989004e-06
2.065984245e-06
9.766470917e-07
5.110823055e-05
0.0003408409859
0.0003897266445
9.902396053e-07
1.377844178e-06
1.592934518e-06
1.739891755e-06
1.851392023e-06
1.940815073e-06
2.015152181e-06
2.0785401e-06
2.133629713e-06
2.182220373e-06
2.225587722e-06
2.264667336e-06
2.300164302e-06
2.332621982e-06
2.362466994e-06
2.390039686e-06
2.415615411e-06
2.439419797e-06
2.461639959e-06
2.482432921e-06
2.501932073e-06
2.520252186e-06
2.53749352e-06
2.553745118e-06
2.569087522e-06
2.583595108e-06
2.597338427e-06
2.610384212e-06
2.622816031e-06
2.634550997e-06
2.646866586e-06
2.651545709e-06
2.696234981e-06
2.559404806e-06
3.036746944e-06
2.174228019e-06
2.730117668e-06
5.353516427e-06
0.000372911308
0.0004196651069
9.90077258e-07
1.377642289e-06
1.592762279e-06
1.739744932e-06
1.851274279e-06
1.940730677e-06
2.015105911e-06
2.078537091e-06
2.133675236e-06
2.18231956e-06
2.225745311e-06
2.264887439e-06
2.300450168e-06
2.332975769e-06
2.36288956e-06
2.390530396e-06
2.416171979e-06
2.440038163e-06
2.462314203e-06
2.483155229e-06
2.502692747e-06
2.521039754e-06
2.538294874e-06
2.554545697e-06
2.569871605e-06
2.584346204e-06
2.59803967e-06
2.611018773e-06
2.623370803e-06
2.63499428e-06
2.647324606e-06
2.651109317e-06
2.700137298e-06
2.540308806e-06
3.127592679e-06
1.863591344e-06
5.706571163e-07
1.275973664e-05
0.0004062934527
0.0004509911065
9.899100981e-07
1.377439302e-06
1.592591063e-06
1.739601557e-06
1.851162744e-06
1.940655804e-06
2.015073207e-06
2.078552542e-06
2.133745043e-06
2.182449854e-06
2.225941866e-06
2.265155382e-06
2.30079372e-06
2.333397993e-06
2.363392112e-06
2.39111332e-06
2.416833507e-06
2.440774577e-06
2.463119724e-06
2.484021963e-06
2.503610703e-06
2.521996935e-06
2.539277386e-06
2.55553794e-06
2.570856558e-06
2.585305828e-06
2.59895542e-06
2.611871756e-06
2.624145638e-06
2.635656581e-06
2.647990064e-06
2.651062383e-06
2.702299048e-06
2.536599321e-06
3.139630777e-06
1.660112597e-06
1.513137112e-06
2.257468463e-05
0.0004401558495
0.0004837804286
9.897382391e-07
1.37723626e-06
1.592421674e-06
1.739462388e-06
1.85105821e-06
1.940591375e-06
2.015055257e-06
2.078588061e-06
2.133841331e-06
2.182614209e-06
2.226181266e-06
2.265476173e-06
2.301201303e-06
2.333896535e-06
2.363984266e-06
2.391799985e-06
2.417613601e-06
2.441644872e-06
2.464074707e-06
2.485053767e-06
2.504709112e-06
2.523149452e-06
2.54046933e-06
2.556752625e-06
2.57207557e-06
2.586509395e-06
2.600122952e-06
2.612982249e-06
2.625179902e-06
2.636586025e-06
2.648864205e-06
2.65150821e-06
2.704077727e-06
2.532384803e-06
3.14298128e-06
1.827902972e-06
3.632854275e-06
3.443335964e-05
0.0004743152165
0.0005180981561
9.89561827e-07
1.377034356e-06
1.592254989e-06
1.739328221e-06
1.850961481e-06
1.940538318e-06
2.015053258e-06
2.078645291e-06
2.133966395e-06
2.182815783e-06
2.22646774e-06
2.265855319e-06
2.301679929e-06
2.334480151e-06
2.364676757e-06
2.392603321e-06
2.418527591e-06
2.442666961e-06
2.465199821e-06
2.486274208e-06
2.506014531e-06
2.524526904e-06
2.541903369e-06
2.558225465e-06
2.573567339e-06
2.587998476e-06
2.601586457e-06
2.614396612e-06
2.626522133e-06
2.637831706e-06
2.649994707e-06
2.652618363e-06
2.703783982e-06
2.54104136e-06
3.118217707e-06
1.654134049e-06
1.940881603e-06
4.859695308e-05
0.0005084605488
0.0005538936305
9.893810424e-07
1.376834937e-06
1.592091967e-06
1.739199892e-06
1.85087337e-06
1.940497562e-06
2.01506842e-06
2.078725926e-06
2.134122631e-06
2.183057927e-06
2.226805876e-06
2.266298905e-06
2.302237427e-06
2.335158658e-06
2.365481645e-06
2.393537884e-06
2.419592792e-06
2.443861142e-06
2.466518602e-06
2.487710259e-06
2.507557476e-06
2.526163431e-06
2.543617319e-06
2.559997977e-06
2.575377074e-06
2.589821906e-06
2.603398293e-06
2.616170186e-06
2.628232123e-06
2.639438978e-06
2.651574738e-06
2.653452355e-06
2.708171843e-06
2.526731947e-06
3.174811649e-06
1.464909097e-06
3.140875518e-06
6.292245197e-05
0.0005423791411
0.0005911906835
9.891960876e-07
1.37663949e-06
1.591933629e-06
1.739078259e-06
1.850794689e-06
1.940470026e-06
2.015101963e-06
2.078831711e-06
2.134312566e-06
2.183344224e-06
2.22720061e-06
2.26681357e-06
2.302882488e-06
2.335943097e-06
2.366412584e-06
2.3946202e-06
2.420828861e-06
2.44525055e-06
2.468057945e-06
2.489392837e-06
2.509373094e-06
2.528098517e-06
2.545655079e-06
2.562118544e-06
2.577557698e-06
2.592037163e-06
2.605620454e-06
2.618369281e-06
2.630380143e-06
2.641485625e-06
2.653613378e-06
2.654784358e-06
2.712055258e-06
2.519144339e-06
3.200633971e-06
1.432776365e-06
4.402123859e-06
8.312040218e-05
0.0005758159875
0.0006302684752
9.890071744e-07
1.37644965e-06
1.591781066e-06
1.738964203e-06
1.850726244e-06
1.940456615e-06
2.015155114e-06
2.078964446e-06
2.134538866e-06
2.183678524e-06
2.227657316e-06
2.267406565e-06
2.303624639e-06
2.336845729e-06
2.367484951e-06
2.395869127e-06
2.42225849e-06
2.446861986e-06
2.469848916e-06
2.491357622e-06
2.51150207e-06
2.530378058e-06
2.548067878e-06
2.564643833e-06
2.580171442e-06
2.594712156e-06
2.608326601e-06
2.621073082e-06
2.633052703e-06
2.644047112e-06
2.656313554e-06
2.655992065e-06
2.719484345e-06
2.500770947e-06
3.262495305e-06
1.335898152e-06
5.818991275e-06
9.486740717e-06
0.0006096677856
0.0006712548508
9.888146178e-07
1.376267444e-06
1.591635574e-06
1.738858736e-06
1.850668928e-06
1.940458302e-06
2.015229176e-06
2.079126064e-06
2.134804422e-06
2.184065051e-06
2.228181954e-06
2.268086022e-06
2.304474617e-06
2.337880316e-06
2.368716103e-06
2.3973063e-06
2.423908041e-06
2.448726829e-06
2.471928158e-06
2.493646574e-06
2.513992062e-06
2.533055868e-06
2.550915955e-06
2.567640681e-06
2.583291899e-06
2.597927462e-06
2.611604521e-06
2.624376849e-06
2.636351546e-06
2.647239602e-06
2.659745223e-06
2.657470464e-06
2.729152879e-06
2.478072239e-06
3.339067991e-06
1.195402912e-06
6.237156831e-06
1.921232124e-05
0.0006455606233
0.0007139695844
9.886191201e-07
1.376095727e-06
1.591498971e-06
1.738763253e-06
1.850623934e-06
1.940476332e-06
2.015325747e-06
2.079318858e-06
2.13511262e-06
2.18450872e-06
2.228781464e-06
2.268861443e-06
2.305445042e-06
2.339063119e-06
2.3701265e-06
2.398956908e-06
2.425808162e-06
2.45088183e-06
2.474338923e-06
2.496309467e-06
2.516899482e-06
2.536195603e-06
2.554270629e-06
2.571188249e-06
2.587006255e-06
2.601778685e-06
2.615558786e-06
2.628394762e-06
2.640399801e-06
2.651204402e-06
2.663998842e-06
2.659661766e-06
2.740053601e-06
2.453884349e-06
3.429816389e-06
1.020992009e-06
7.100377509e-06
3.294680713e-05
0.000681710719
0.0007583550015
9.884218841e-07
1.375937651e-06
1.591373458e-06
1.73867945e-06
1.850592721e-06
1.940512235e-06
2.015446785e-06
2.079545633e-06
2.135467574e-06
2.185015477e-06
2.229464204e-06
2.269744236e-06
2.306550977e-06
2.340413536e-06
2.371740627e-06
2.400851071e-06
2.427994938e-06
2.453369569e-06
2.477131373e-06
2.499405001e-06
2.520291221e-06
2.539872183e-06
2.558215595e-06
2.575379706e-06
2.591417521e-06
2.606379054e-06
2.620313668e-06
2.633262882e-06
2.645349345e-06
2.656088336e-06
2.669347497e-06
2.662294476e-06
2.754072984e-06
2.424430399e-06
3.539488872e-06
8.493324951e-07
8.350419153e-06
4.864944312e-05
0.0007177044841
0.0008045192436
9.882240066e-07
1.375794182e-06
1.591260374e-06
1.738608435e-06
1.850576316e-06
1.940567268e-06
2.015594168e-06
2.079809334e-06
2.135873824e-06
2.185592049e-06
2.230239762e-06
2.27074755e-06
2.307809778e-06
2.341953982e-06
2.37358674e-06
2.403023582e-06
2.430510496e-06
2.456240238e-06
2.480364131e-06
2.503001149e-06
2.524245643e-06
2.544174059e-06
2.562849233e-06
2.580324103e-06
2.596646512e-06
2.611862147e-06
2.626016619e-06
2.63914404e-06
2.65137943e-06
2.662097147e-06
2.675956924e-06
2.665928809e-06
2.769832475e-06
2.397885794e-06
3.626210398e-06
7.445424327e-07
1.052013501e-05
6.657971523e-05
0.0007532040262
0.0008525535532
9.880260036e-07
1.375663214e-06
1.591159608e-06
1.73855033e-06
1.850575025e-06
1.940642174e-06
2.015769435e-06
2.080112774e-06
2.136336023e-06
2.186245588e-06
2.231118564e-06
2.271885834e-06
2.309240758e-06
2.343709716e-06
2.375696949e-06
2.405514423e-06
2.433403787e-06
2.459552728e-06
2.484106679e-06
2.507178304e-06
2.528855141e-06
2.549206444e-06
2.568289128e-06
2.586151372e-06
2.60283644e-06
2.618385986e-06
2.632842493e-06
2.646232323e-06
2.658707889e-06
2.66946828e-06
2.684113411e-06
2.670822268e-06
2.787820003e-06
2.371490715e-06
3.728765768e-06
4.340835705e-07
1.31640552e-06
8.574379083e-05
0.0007876103696
0.0009022688198
9.878292121e-07
1.37554598e-06
1.591072785e-06
1.738506637e-06
1.850590391e-06
1.94073886e-06
2.015975308e-06
2.080460049e-06
2.13686032e-06
2.186985072e-06
2.23211328e-06
2.273176292e-06
2.310866958e-06
2.345710798e-06
2.378109518e-06
2.408371368e-06
2.436733374e-06
2.463377547e-06
2.488442578e-06
2.512033856e-06
2.534231308e-06
2.555096062e-06
2.574677567e-06
2.593018858e-06
2.610159744e-06
2.626139456e-06
2.640999429e-06
2.654759227e-06
2.667594661e-06
2.678503413e-06
2.694075346e-06
2.677953481e-06
2.804135982e-06
2.372896145e-06
3.705797649e-06
4.545568087e-07
3.513374746e-06
0.0001088562779
0.0008208464026
0.0009535668714
9.876370384e-07
1.37545365e-06
1.591006772e-06
1.738482942e-06
1.850627538e-06
1.9408626e-06
2.016217871e-06
2.080858797e-06
2.137456762e-06
2.187823941e-06
2.233241773e-06
2.274642257e-06
2.312718786e-06
2.347995925e-06
2.380872797e-06
2.411653862e-06
2.440571354e-06
2.467801015e-06
2.493473909e-06
2.517686996e-06
2.54051101e-06
2.561997645e-06
2.582187382e-06
2.601117069e-06
2.618824367e-06
2.63534912e-06
2.650735885e-06
2.665001101e-06
2.678348198e-06
2.689590087e-06
2.706027122e-06
2.68915795e-06
2.812334803e-06
2.433853169e-06
3.435783161e-06
1.21380284e-06
6.933968661e-06
0.0001338079539
0.0008521167667
0.001006816866
9.874521481e-07
1.375398733e-06
1.590969697e-06
1.738486458e-06
1.850693513e-06
1.941020887e-06
2.016505806e-06
2.081319751e-06
2.138139151e-06
2.188780277e-06
2.234527702e-06
2.276314617e-06
2.314835823e-06
2.350614857e-06
2.3840483e-06
2.415436896e-06
2.445007875e-06
2.472930121e-06
2.499326407e-06
2.524283932e-06
2.547862178e-06
2.570101042e-06
2.591029846e-06
2.610677919e-06
2.629082007e-06
2.646287195e-06
2.662348649e-06
2.67728691e-06
2.69134548e-06
2.703139488e-06
2.720682256e-06
2.703021343e-06
2.830797549e-06
2.428955306e-06
3.542389332e-06
1.117260676e-06
7.766004064e-06
1.84455912e-05
0.0008861109051
0.00106210918
9.872744813e-07
1.375383639e-06
1.590965263e-06
1.738521979e-06
1.850794079e-06
1.941220786e-06
2.016848099e-06
2.081854725e-06
2.138923262e-06
2.189875192e-06
2.235999033e-06
2.278230571e-06
2.317266243e-06
2.353628908e-06
2.387712781e-06
2.419814791e-06
2.450156531e-06
2.478899433e-06
2.506157499e-06
2.532006735e-06
2.556493153e-06
2.579641488e-06
2.601466276e-06
2.621986991e-06
2.641240324e-06
2.659283001e-06
2.676193167e-06
2.692008555e-06
2.707041363e-06
2.719631186e-06
2.738939033e-06
2.719628223e-06
2.855007056e-06
2.428109666e-06
3.747969746e-06
9.215923733e-08
8.233743234e-06
2.937198003e-05
0.000920429865
0.001119431767
9.87105858e-07
1.375410725e-06
1.59099755e-06
1.738594813e-06
1.85093588e-06
1.941470754e-06
2.017255741e-06
2.082478262e-06
2.139828553e-06
2.1911347e-06
2.23769007e-06
2.280435092e-06
2.320068311e-06
2.357112676e-06
2.391960444e-06
2.424904437e-06
2.456159745e-06
2.485879604e-06
2.514168023e-06
2.541087885e-06
2.566669203e-06
2.590917117e-06
2.613825785e-06
2.635400854e-06
2.655679467e-06
2.674738086e-06
2.692696478e-06
2.709635228e-06
2.725958629e-06
2.73981236e-06
2.760931153e-06
2.743129274e-06
2.87172549e-06
2.520224166e-06
3.397046886e-06
1.233346597e-06
9.468087514e-06
4.294780901e-05
0.0009540708571
0.001178776717
9.869519366e-07
1.375491817e-06
1.591076933e-06
1.73871577e-06
1.851130932e-06
1.941784829e-06
2.017745796e-06
2.083211701e-06
2.140882305e-06
2.192594141e-06
2.239646699e-06
2.2829868e-06
2.323316453e-06
2.361159914e-06
2.396908212e-06
2.430850148e-06
2.463194158e-06
2.494084514e-06
2.523612925e-06
2.551826214e-06
2.578734052e-06
2.604314744e-06
2.628533009e-06
2.651374345e-06
2.672876697e-06
2.693146854e-06
2.712374348e-06
2.730722047e-06
2.748749138e-06
2.764434184e-06
2.787562524e-06
2.775527859e-06
2.889718001e-06
2.551234158e-06
3.638112564e-06
2.617954578e-06
1.078612428e-05
5.855131511e-05
0.0009868306851
0.001240125841
9.868189443e-07
1.37564031e-06
1.591217506e-06
1.738900571e-06
1.851396994e-06
1.942183585e-06
2.018342789e-06
2.084085025e-06
2.14212192e-06
2.194300862e-06
2.241929677e-06
2.285963047e-06
2.327108452e-06
2.365892862e-06
2.402706863e-06
2.437835885e-06
2.471482567e-06
2.503782249e-06
2.534812973e-06
2.564602259e-06
2.593132017e-06
2.620340551e-06
2.646146256e-06
2.67050201e-06
2.693445305e-06
2.715128308e-06
2.735853712e-06
2.755927366e-06
2.776233414e-06
2.793953563e-06
2.823445402e-06
2.801624852e-06
2.960987282e-06
2.555688306e-06
3.56472923e-06
1.210051273e-06
1.239516229e-05
7.40493852e-05
0.001018281934
0.001303498589
9.867145506e-07
1.375871084e-06
1.591436134e-06
1.739168991e-06
1.851757189e-06
1.942694323e-06
2.01907946e-06
2.085138226e-06
2.143597042e-06
2.196317103e-06
2.244617815e-06
2.289464008e-06
2.33157112e-06
2.371470527e-06
2.409553259e-06
2.44610209e-06
2.481314769e-06
2.515318879e-06
2.54817997e-06
2.579904427e-06
2.610437393e-06
2.639656828e-06
2.667404086e-06
2.693572985e-06
2.71819141e-06
2.74147553e-06
2.763907206e-06
2.786064458e-06
2.809180026e-06
2.830592642e-06
2.864052222e-06
2.851481507e-06
3.001314235e-06
2.63216459e-06
3.578683793e-06
1.734026973e-06
1.486125954e-05
9.052940905e-05
0.00104823465
0.0013690639
9.866485424e-07
1.376201992e-06
1.591754374e-06
1.739547036e-06
1.852242379e-06
1.943353725e-06
2.019999799e-06
2.086424833e-06
2.14537388e-06
2.19872553e-06
2.247814844e-06
2.293620698e-06
2.336869377e-06
2.37809887e-06
2.417701975e-06
2.45596002e-06
2.493067733e-06
2.529147998e-06
2.564257427e-06
2.598381696e-06
2.631419832e-06
2.663159805e-06
2.693315278e-06
2.721672225e-06
2.748220433e-06
2.773254612e-06
2.797545066e-06
2.822108678e-06
2.848963689e-06
2.874600119e-06
2.917547749e-06
2.905076727e-06
3.077132831e-06
2.72683149e-06
3.503720052e-06
2.025115719e-06
1.855661261e-05
0.0001099285317
0.00107601365
0.001436903078
9.866344006e-07
1.376657046e-06
1.592201166e-06
1.740069668e-06
1.852894126e-06
1.944211105e-06
2.021162716e-06
2.088016155e-06
2.147540141e-06
2.201635311e-06
2.251657897e-06
2.29860633e-06
2.343220846e-06
2.386048587e-06
2.427486332e-06
2.467817003e-06
2.507238728e-06
2.545879475e-06
2.58379834e-06
2.62096246e-06
2.657220102e-06
2.692208248e-06
2.725429507e-06
2.756483547e-06
2.78525649e-06
2.812125113e-06
2.838303196e-06
2.865610273e-06
2.897216429e-06
2.928551385e-06
2.986482794e-06
2.969305674e-06
3.196226237e-06
2.734363955e-06
4.083207689e-06
7.232969594e-07
3.305424765e-07
0.0001221003919
0.001100701148
0.001506944366
9.866890061e-07
1.377265223e-06
1.592813239e-06
1.740782185e-06
1.853766835e-06
1.945331293e-06
2.022645718e-06
2.090005993e-06
2.150210984e-06
2.2051899e-06
2.256328446e-06
2.304650826e-06
2.350915385e-06
2.395683211e-06
2.439362468e-06
2.482246498e-06
2.524553137e-06
2.566436904e-06
2.607979713e-06
2.649118592e-06
2.689683766e-06
2.729002392e-06
2.766247609e-06
2.800733611e-06
2.832112322e-06
2.860816065e-06
2.888672174e-06
2.919068651e-06
2.956183621e-06
2.998476784e-06
3.068998335e-06
3.073755574e-06
3.306438751e-06
2.924432627e-06
4.166986763e-06
4.940020201e-07
1.680855695e-05
0.0001336431108
0.00112351257
0.001579135138
9.868340368e-07
1.378063531e-06
1.593638217e-06
1.741743806e-06
1.854931896e-06
1.946799417e-06
2.024550597e-06
2.092517756e-06
2.153538224e-06
2.209580238e-06
2.262071199e-06
2.312069059e-06
2.360360733e-06
2.407537582e-06
2.454033996e-06
2.500166362e-06
2.546175127e-06
2.592229976e-06
2.638393703e-06
2.684538448e-06
2.730514895e-06
2.775178604e-06
2.817321077e-06
2.855834406e-06
2.88991453e-06
2.919856735e-06
2.948281944e-06
2.981063921e-06
3.02526466e-06
3.084352592e-06
3.172448419e-06
3.218998749e-06
3.498591099e-06
3.103967757e-06
4.008578934e-06
2.275395525e-06
2.747254384e-05
0.0001742817034
0.001144666888
0.001653627054
9.870968719e-07
1.379099374e-06
1.594737764e-06
1.743031739e-06
1.856482699e-06
1.94872685e-06
2.027010857e-06
2.095714599e-06
2.157726179e-06
2.215071727e-06
2.269239144e-06
2.321338863e-06
2.372214291e-06
2.422513919e-06
2.47260854e-06
2.522749328e-06
2.572986039e-06
2.623261065e-06
2.673379977e-06
2.723652537e-06
2.773099574e-06
2.821644688e-06
2.867691237e-06
2.908618054e-06
2.942927244e-06
2.970426754e-06
2.995018634e-06
3.025418236e-06
3.080301392e-06
3.152474362e-06
3.289850641e-06
3.400942619e-06
3.722644134e-06
3.386457055e-06
4.525524705e-06
3.06413463e-06
3.264080919e-06
0.0001300973351
0.001161247113
0.001730584656
9.875149795e-07
1.380437362e-06
1.596194192e-06
1.744748053e-06
1.858542921e-06
1.95126194e-06
2.030208276e-06
2.099827187e-06
2.163081844e-06
2.222088682e-06
2.278419624e-06
2.333246438e-06
2.387446308e-06
2.441519195e-06
2.495017543e-06
2.547620318e-06
2.598583142e-06
2.647528442e-06
2.694768129e-06
2.74543059e-06
2.791713684e-06
2.844049877e-06
2.897481105e-06
2.940834563e-06
2.972155672e-06
2.992267209e-06
3.008946698e-06
3.034782877e-06
3.110469776e-06
3.172798777e-06
3.402513054e-06
3.488988847e-06
3.944762414e-06
3.853020254e-06
5.18580313e-06
2.900895834e-06
2.754317147e-05
0.0001928743769
0.001172763974
0.001810242951
9.881457315e-07
1.382167541e-06
1.598124364e-06
1.747036893e-06
1.861292087e-06
1.95463309e-06
2.034443525e-06
2.105262965e-06
2.170162184e-06
2.231346957e-06
2.290363889e-06
2.348136818e-06
2.404948168e-06
2.459721509e-06
2.509891047e-06
2.554744536e-06
2.595360417e-06
2.636661429e-06
2.688713326e-06
2.776680828e-06
2.863379291e-06
2.991111707e-06
3.127905974e-06
3.226498581e-06
3.284004929e-06
3.313282136e-06
3.343231565e-06
3.410915044e-06
3.559433434e-06
3.612184156e-06
3.84314552e-06
3.532742081e-06
4.081066394e-06
3.914112824e-06