/*--------------------------------*- C++ -*----------------------------------*\
| =========                 |                                                 |
| \\      /  F ield         | OpenFOAM: The Open Source CFD Toolbox           |
|  \\    /   O peration     | Version:  v1912                                 |
|   \\  /    A nd           | Website:  www.openfoam.com                      |
|    \\/     M anipulation  |                                                 |
\*---------------------------------------------------------------------------*/
FoamFile
{
    version     2.0;
    format      ascii;
    class       volScalarField;
    location    "0.8";
    object      k.liquid_0;
}
// * * * * * * * * * * * * * * * * * * * * * * * * * * * * * * * * * * * * * //

dimensions      [0 2 -2 0 0 0 0];


internalField   nonuniform List<scalar> 
4800
(
4.182302548e-07
5.722562446e-07
6.555320658e-07
7.141832562e-07
7.626564449e-07
8.069684649e-07
8.50441373e-07
8.952323237e-07
9.429161041e-07
9.947540508e-07
1.051833934e-06
1.115150019e-06
1.185652545e-06
1.264280588e-06
1.351985713e-06
1.449750712e-06
1.558606273e-06
1.679647707e-06
1.814053574e-06
1.963107985e-06
2.128228389e-06
2.311000941e-06
2.513225806e-06
2.736975356e-06
2.984669263e-06
3.25917133e-06
3.563914917e-06
3.903067299e-06
4.281753039e-06
4.706325677e-06
5.184916278e-06
5.727475503e-06
6.34735093e-06
7.074181796e-06
7.833643775e-06
9.175855776e-06
9.262348636e-06
1.329908372e-05
7.926752525e-06
3.155119178e-05
1.042974857e-06
1.452414856e-06
1.679111794e-06
1.833899221e-06
1.951102571e-06
2.044845833e-06
2.122523215e-06
2.18851719e-06
2.245642681e-06
2.295816916e-06
2.340406052e-06
2.380419796e-06
2.416627703e-06
2.449632333e-06
2.479917237e-06
2.507879601e-06
2.533853147e-06
2.558124672e-06
2.580946307e-06
2.602544833e-06
2.623128962e-06
2.642895202e-06
2.662032722e-06
2.680727594e-06
2.699166629e-06
2.717541e-06
2.736049956e-06
2.754903637e-06
2.774334342e-06
2.794536422e-06
2.816112914e-06
2.83734931e-06
2.868405584e-06
2.867721653e-06
2.985860822e-06
2.74400901e-06
3.517843417e-06
1.868889417e-06
1.012060449e-05
6.878885251e-05
9.881095189e-07
1.374554362e-06
1.588549839e-06
1.734790553e-06
1.845717662e-06
1.934646184e-06
2.008533137e-06
2.071495242e-06
2.126171842e-06
2.17435649e-06
2.217323201e-06
2.256009188e-06
2.291123845e-06
2.323217072e-06
2.3527239e-06
2.37999465e-06
2.405315914e-06
2.42892553e-06
2.4510235e-06
2.471780116e-06
2.491342126e-06
2.509837495e-06
2.527379183e-06
2.544068204e-06
2.559996225e-06
2.575247897e-06
2.589903083e-06
2.604038864e-06
2.617735342e-06
2.631052682e-06
2.644235735e-06
2.656359346e-06
2.673584453e-06
2.664698166e-06
2.774333184e-06
2.418978834e-06
3.634989513e-06
6.268393011e-07
1.146371427e-05
9.10788295e-05
9.924958512e-07
1.381134821e-06
1.596377884e-06
1.743454457e-06
1.854991017e-06
1.944382929e-06
2.018631095e-06
2.081878946e-06
2.136783335e-06
2.185149884e-06
2.228261281e-06
2.267061203e-06
2.302264019e-06
2.334423581e-06
2.363978164e-06
2.391280837e-06
2.416620616e-06
2.440237543e-06
2.462333698e-06
2.483081394e-06
2.5026294e-06
2.521107751e-06
2.538631565e-06
2.555304151e-06
2.571219651e-06
2.586465445e-06
2.601124386e-06
2.615277134e-06
2.629005059e-06
2.642393171e-06
2.655537114e-06
2.668488346e-06
2.68213949e-06
2.689128899e-06
2.74546165e-06
2.52497864e-06
3.535498703e-06
5.289075415e-07
1.950697223e-05
0.0001101940964
9.920171283e-07
1.380390198e-06
1.595495136e-06
1.742478235e-06
1.853948345e-06
1.943291595e-06
2.017503763e-06
2.080725088e-06
2.135610336e-06
2.183963611e-06
2.227066437e-06
2.265861554e-06
2.301062529e-06
2.333222495e-06
2.362779053e-06
2.39008462e-06
2.415427557e-06
2.439047235e-06
2.461145034e-06
2.481892517e-06
2.501437633e-06
2.519909504e-06
2.537422198e-06
2.55407778e-06
2.569968855e-06
2.585180851e-06
2.599794048e-06
2.613885701e-06
2.627530713e-06
2.640816154e-06
2.65376672e-06
2.666731551e-06
2.679144603e-06
2.689216256e-06
2.731663328e-06
2.57396196e-06
3.215703075e-06
1.220475041e-06
1.517053466e-05
0.0001283422023
9.919514248e-07
1.380308506e-06
1.59542344e-06
1.742413219e-06
1.853890261e-06
1.943240851e-06
2.017460797e-06
2.08069033e-06
2.135584176e-06
2.183946342e-06
2.227058208e-06
2.26586232e-06
2.301072012e-06
2.333240141e-06
2.362803992e-06
2.390115631e-06
2.41546303e-06
2.439085139e-06
2.461182877e-06
2.481927304e-06
2.501465815e-06
2.519926906e-06
2.537423926e-06
2.55405808e-06
2.569920889e-06
2.585096369e-06
2.599662953e-06
2.613695335e-06
2.627264348e-06
2.640454543e-06
2.653257247e-06
2.666188094e-06
2.677583814e-06
2.691415236e-06
2.714164424e-06
2.631579158e-06
3.065855029e-06
2.619240915e-06
8.844357856e-06
0.0001463292776
9.918452355e-07
1.380158664e-06
1.595270017e-06
1.74225725e-06
1.853734773e-06
1.943088113e-06
2.017312589e-06
2.080548103e-06
2.135449106e-06
2.183819337e-06
2.226939893e-06
2.265753006e-06
2.300971666e-06
2.333148344e-06
2.362719906e-06
2.39003796e-06
2.415389979e-06
2.439014379e-06
2.461111499e-06
2.481851779e-06
2.501381936e-06
2.519829718e-06
2.53730763e-06
2.553915899e-06
2.569744879e-06
2.584877088e-06
2.599389102e-06
2.61335309e-06
2.626836999e-06
2.63991941e-06
2.652570957e-06
2.665553916e-06
2.674888904e-06
2.698965024e-06
2.679444693e-06
2.708620415e-06
2.955173664e-06
1.333730132e-06
1.721066212e-05
0.0001635975454
9.917387605e-07
1.380010017e-06
1.595121844e-06
1.742109421e-06
1.853589932e-06
1.942948302e-06
2.017179451e-06
2.080423008e-06
2.135333177e-06
2.183713436e-06
2.226844587e-06
2.265668527e-06
2.300897865e-06
2.333084646e-06
2.362665263e-06
2.389990805e-06
2.415348189e-06
2.438975224e-06
2.461071608e-06
2.481807095e-06
2.501327667e-06
2.519760278e-06
2.537216562e-06
2.553795771e-06
2.569587152e-06
2.584671862e-06
2.599124806e-06
2.613016226e-06
2.626410725e-06
2.639391214e-06
2.651849944e-06
2.66517473e-06
2.670727682e-06
2.716281631e-06
2.586874754e-06
3.069538714e-06
1.802965888e-06
2.753437263e-06
5.851567747e-05
0.0001837832245
9.916279612e-07
1.379855393e-06
1.59496986e-06
1.741959389e-06
1.853444487e-06
1.942809512e-06
2.017049006e-06
2.080302339e-06
2.135223471e-06
2.183615609e-06
2.226759237e-06
2.265595886e-06
2.30083774e-06
2.333036371e-06
2.36262764e-06
2.389962056e-06
2.415325905e-06
2.438956329e-06
2.461052314e-06
2.481782864e-06
2.501293172e-06
2.519709362e-06
2.537142182e-06
2.553689934e-06
2.569440837e-06
2.584474899e-06
2.598865558e-06
2.612681867e-06
2.62598297e-06
2.638881847e-06
2.651014239e-06
2.66550098e-06
2.663593853e-06
2.741946261e-06
2.494339986e-06
3.31249789e-06
1.052954343e-06
7.94712005e-06
8.338498516e-05
0.0002048029803
9.915129743e-07
1.379695365e-06
1.594814915e-06
1.741808229e-06
1.853299718e-06
1.942673223e-06
2.016922941e-06
2.080188002e-06
2.135122131e-06
2.183528255e-06
2.226686525e-06
2.265538075e-06
2.300794627e-06
2.333007227e-06
2.362611148e-06
2.389956255e-06
2.415328142e-06
2.438963209e-06
2.46105967e-06
2.48178572e-06
2.501285716e-06
2.519684926e-06
2.537093214e-06
2.553607974e-06
2.569316498e-06
2.584297858e-06
2.598624338e-06
2.612364076e-06
2.625572226e-06
2.638387857e-06
2.650223677e-06
2.66570574e-06
2.657867042e-06
2.756393615e-06
2.474130354e-06
3.257576112e-06
1.234559557e-06
1.300067942e-07
0.0001099842379
0.0002269920114
9.913935691e-07
1.379529808e-06
1.594656914e-06
1.741655904e-06
1.853155669e-06
1.942539587e-06
2.016801547e-06
2.08008046e-06
2.135029825e-06
2.183452289e-06
2.22662765e-06
2.265496618e-06
2.300770412e-06
2.332999502e-06
2.362618517e-06
2.389976616e-06
2.415358629e-06
2.439000152e-06
2.461098555e-06
2.481821168e-06
2.501311469e-06
2.519693845e-06
2.537077285e-06
2.553558326e-06
2.569223436e-06
2.584150909e-06
2.598412243e-06
2.612074798e-06
2.625192873e-06
2.637904202e-06
2.649664036e-06
2.664542416e-06
2.660012401e-06
2.742605833e-06
2.489198597e-06
3.396558421e-06
1.095029504e-07
9.028120261e-06
0.0001362304834
0.0002500818078
9.912695835e-07
1.379358762e-06
1.594495951e-06
1.741502594e-06
1.853012619e-06
1.942409009e-06
2.016685386e-06
2.07998047e-06
2.134947548e-06
2.183388983e-06
2.226584208e-06
2.265473478e-06
2.300767473e-06
2.333016036e-06
2.362653091e-06
2.390027026e-06
2.415421839e-06
2.439072248e-06
2.461174713e-06
2.481895635e-06
2.50137757e-06
2.519743994e-06
2.537103027e-06
2.553550402e-06
2.569171841e-06
2.584044974e-06
2.598240872e-06
2.611826248e-06
2.624857647e-06
2.63744649e-06
2.649285805e-06
2.662646701e-06
2.666071339e-06
2.711488282e-06
2.597830035e-06
2.99847686e-06
1.283825923e-06
2.114420156e-05
0.0001631618055
0.000274275879
9.911408783e-07
1.379182335e-06
1.594332185e-06
1.741348541e-06
1.852870913e-06
1.942281964e-06
2.016575103e-06
2.079888892e-06
2.134876417e-06
2.183339764e-06
2.226557986e-06
2.265470859e-06
2.300788479e-06
2.333060013e-06
2.362718621e-06
2.390111849e-06
2.415522789e-06
2.439185205e-06
2.461294572e-06
2.4820163e-06
2.501491959e-06
2.519844082e-06
2.53717992e-06
2.553594439e-06
2.569172648e-06
2.583991642e-06
2.598122303e-06
2.611631006e-06
2.6245774e-06
2.637042967e-06
2.648960679e-06
2.66100903e-06
2.670500701e-06
2.690534816e-06
2.653933716e-06
2.872365669e-06
1.697846289e-06
2.622396979e-06
0.0001906943924
0.00029979344
9.910073412e-07
1.379000721e-06
1.594165843e-06
1.741194061e-06
1.852730972e-06
1.942159013e-06
2.016471441e-06
2.079806698e-06
2.134817692e-06
2.183306234e-06
2.226550991e-06
2.265491227e-06
2.30083642e-06
2.333135005e-06
2.362819315e-06
2.39023598e-06
2.415667107e-06
2.439345424e-06
2.46146534e-06
2.482191189e-06
2.501663495e-06
2.520003796e-06
2.537318457e-06
2.553701658e-06
2.569237748e-06
2.584003412e-06
2.598069432e-06
2.61150221e-06
2.624363229e-06
2.636719471e-06
2.648623561e-06
2.659954863e-06
2.672675353e-06
2.677247674e-06
2.695169262e-06
2.79759976e-06
1.162696151e-06
9.274009234e-06
0.000219573163
0.0003264980105
9.908688864e-07
1.378814193e-06
1.593997227e-06
1.741039538e-06
1.852593292e-06
1.942040794e-06
2.016375232e-06
2.079734973e-06
2.134772769e-06
2.18329017e-06
2.226565443e-06
2.265537322e-06
2.30091462e-06
2.33324499e-06
2.362959867e-06
2.390404887e-06
2.415861088e-06
2.439560067e-06
2.461695073e-06
2.482429279e-06
2.501902076e-06
2.520233944e-06
2.537530303e-06
2.553884475e-06
2.56938024e-06
2.584093966e-06
2.598096354e-06
2.611453804e-06
2.624231043e-06
2.636473871e-06
2.648403762e-06
2.658797077e-06
2.67597346e-06
2.658710442e-06
2.76460079e-06
2.552636898e-06
1.682518601e-06
1.693615293e-05
0.0002489491832
0.0003544062224
9.907254542e-07
1.378623116e-06
1.593826709e-06
1.740885426e-06
1.852458433e-06
1.941928019e-06
2.016287389e-06
2.079674901e-06
2.134743176e-06
2.183293517e-06
2.226603787e-06
2.265612165e-06
2.30102676e-06
2.333394381e-06
2.363145497e-06
2.390624664e-06
2.416111754e-06
2.439837134e-06
2.461992786e-06
2.482740616e-06
2.502218785e-06
2.520546626e-06
2.537828487e-06
2.554156796e-06
2.56961478e-06
2.584278535e-06
2.598218714e-06
2.611501889e-06
2.62419513e-06
2.636334658e-06
2.648218818e-06
2.658137298e-06
2.677538712e-06
2.646108845e-06
2.808736076e-06
2.535048502e-06
4.661008276e-06
2.556940659e-05
0.0002788769956
0.0003836033136
9.905770121e-07
1.37842795e-06
1.593654735e-06
1.74073224e-06
1.852327015e-06
1.941821463e-06
2.016208901e-06
2.079627762e-06
2.13473057e-06
2.183318393e-06
2.226668693e-06
2.265719071e-06
2.301176891e-06
2.333588059e-06
2.363381997e-06
2.390902092e-06
2.416426943e-06
2.440185571e-06
2.462368572e-06
2.483136463e-06
2.502626055e-06
2.520955403e-06
2.538227656e-06
2.554534328e-06
2.569957975e-06
2.584574352e-06
2.598454218e-06
2.611664204e-06
2.624276094e-06
2.636294028e-06
2.64827672e-06
2.656828966e-06
2.682620484e-06
2.62306146e-06
2.890715335e-06
2.387530174e-06
4.213868803e-06
3.617301526e-05
0.0003094626671
0.0004142589109
9.904235554e-07
1.378229254e-06
1.593481821e-06
1.740580558e-06
1.852199715e-06
1.941721957e-06
2.016140827e-06
2.07959492e-06
2.134736727e-06
2.183367086e-06
2.226763064e-06
2.265861665e-06
2.301369467e-06
2.333831409e-06
2.363675785e-06
2.391244711e-06
2.416815395e-06
2.440615387e-06
2.462833756e-06
2.483629483e-06
2.503137879e-06
2.521475555e-06
2.538744386e-06
2.555034862e-06
2.570428707e-06
2.585001163e-06
2.598823132e-06
2.611961264e-06
2.624494506e-06
2.636372119e-06
2.648602898e-06
2.654752447e-06
2.692801409e-06
2.579862604e-06
3.023565286e-06
2.075258091e-06
8.777228165e-07
4.966688487e-05
0.0003401605625
0.0004466161438
9.902651079e-07
1.378027699e-06
1.59330856e-06
1.740431012e-06
1.852077253e-06
1.94163038e-06
2.016084285e-06
2.079577825e-06
2.134763532e-06
2.183442049e-06
2.22689004e-06
2.266043898e-06
2.301609373e-06
2.334130373e-06
2.364033973e-06
2.39166091e-06
2.417286876e-06
2.441137799e-06
2.463401064e-06
2.484233948e-06
2.503770079e-06
2.522124456e-06
2.539397559e-06
2.555678651e-06
2.57104849e-06
2.585581668e-06
2.59934896e-06
2.612417281e-06
2.624870797e-06
2.636624005e-06
2.648973365e-06
2.653600544e-06
2.69858591e-06
2.56105482e-06
3.038992902e-06
2.178606136e-06
2.72763691e-06
2.176457296e-06
0.0003718306346
0.0004807033155
9.901017221e-07
1.377824073e-06
1.593135614e-06
1.740284285e-06
1.851960389e-06
1.941547642e-06
2.016040441e-06
2.079578002e-06
2.134812987e-06
2.183545901e-06
2.227053008e-06
2.266270067e-06
2.301901962e-06
2.3344915e-06
2.364464445e-06
2.392160037e-06
2.417852306e-06
2.441765399e-06
2.464084837e-06
2.484965997e-06
2.50454062e-06
2.522921927e-06
2.540208768e-06
2.556488952e-06
2.571842085e-06
2.586341996e-06
2.600059094e-06
2.613060332e-06
2.625433665e-06
2.637074622e-06
2.649440045e-06
2.65316341e-06
2.702526022e-06
2.5418335e-06
3.130184468e-06
1.873936628e-06
5.53785001e-07
1.056464202e-05
0.0004051661246
0.0005163809929
9.899334796e-07
1.377619285e-06
1.592963719e-06
1.740141107e-06
1.851849909e-06
1.941474675e-06
2.016010491e-06
2.079597045e-06
2.134887219e-06
2.18368144e-06
2.227255612e-06
2.266544843e-06
2.302253098e-06
2.334922019e-06
2.364975955e-06
2.392752522e-06
2.41852393e-06
2.442512367e-06
2.464901285e-06
2.485843941e-06
2.505469973e-06
2.523890599e-06
2.54120277e-06
2.557492591e-06
2.572838252e-06
2.587312572e-06
2.600985462e-06
2.613923531e-06
2.626218314e-06
2.63774596e-06
2.650115445e-06
2.653121287e-06
2.704698645e-06
2.538127411e-06
3.142571044e-06
1.669816316e-06
1.476038845e-06
2.052571942e-05
0.0004389785351
0.0005537655609
9.897604918e-07
1.377414383e-06
1.592793685e-06
1.740002246e-06
1.851746618e-06
1.941412422e-06
2.015995646e-06
2.079636598e-06
2.134988467e-06
2.183851675e-06
2.227501799e-06
2.26687331e-06
2.302669218e-06
2.33542992e-06
2.365578242e-06
2.393450032e-06
2.419315509e-06
2.443394705e-06
2.46586878e-06
2.486888626e-06
2.506581531e-06
2.525056428e-06
2.542408083e-06
2.558720602e-06
2.574070449e-06
2.58852909e-06
2.60216563e-06
2.615046269e-06
2.627264401e-06
2.638686565e-06
2.651000967e-06
2.653575098e-06
2.706491178e-06
2.533958508e-06
3.145403384e-06
1.833207773e-06
4.77403696e-06
3.239632302e-05
0.0004730905352
0.0005929483699
9.895829022e-07
1.377210561e-06
1.592626394e-06
1.739868507e-06
1.851651333e-06
1.941361829e-06
2.015997131e-06
2.079698338e-06
2.135119071e-06
2.184059819e-06
2.227795869e-06
2.267261062e-06
2.303157436e-06
2.336024079e-06
2.366282178e-06
2.394265653e-06
2.42024255e-06
2.444430523e-06
2.467008204e-06
2.488123854e-06
2.5079021e-06
2.526449279e-06
2.543857654e-06
2.560208994e-06
2.575577683e-06
2.590033448e-06
2.60364413e-06
2.616475259e-06
2.628620835e-06
2.639945856e-06
2.652144828e-06
2.654697807e-06
2.706204979e-06
2.542613603e-06
3.121353561e-06
1.662119226e-06
1.838981585e-06
4.64867989e-05
0.0005071965865
0.0006338985336
9.894008874e-07
1.377009165e-06
1.592462808e-06
1.739740732e-06
1.851564879e-06
1.94132384e-06
2.016016182e-06
2.079783995e-06
2.135281473e-06
2.184309285e-06
2.228142485e-06
2.267714278e-06
2.303725696e-06
2.336714448e-06
2.367099979e-06
2.395214118e-06
2.421322564e-06
2.445640337e-06
2.468343335e-06
2.489576857e-06
2.509462479e-06
2.528103594e-06
2.545589619e-06
2.561999624e-06
2.57740552e-06
2.591874852e-06
2.605473711e-06
2.618266246e-06
2.630347875e-06
2.641569344e-06
2.653742672e-06
2.655537526e-06
2.710647213e-06
2.528201698e-06
3.178256912e-06
1.471084051e-06
3.005363587e-06
6.075094838e-05
0.0005410699621
0.0006766386723
9.892146441e-07
1.376811682e-06
1.592303952e-06
1.739619783e-06
1.851488077e-06
1.941299391e-06
2.016054039e-06
2.079895345e-06
2.135478248e-06
2.184603716e-06
2.228546661e-06
2.268239696e-06
2.30438281e-06
2.337512212e-06
2.368045471e-06
2.396312151e-06
2.422575434e-06
2.447047533e-06
2.469901341e-06
2.491278854e-06
2.511298138e-06
2.530059204e-06
2.547648245e-06
2.564141262e-06
2.57960729e-06
2.594111211e-06
2.607716818e-06
2.620486015e-06
2.632516283e-06
2.64363548e-06
2.655802642e-06
2.656879666e-06
2.714578668e-06
2.520568616e-06
3.204128248e-06
1.436212605e-06
4.218282885e-06
8.036948838e-05
0.0005745015845
0.0007214504645
9.890243769e-07
1.376619744e-06
1.592150912e-06
1.739506543e-06
1.851421737e-06
1.941289396e-06
2.01611195e-06
2.08003422e-06
2.135712106e-06
2.184947027e-06
2.229013856e-06
2.268844674e-06
2.305138437e-06
2.338429793e-06
2.36913422e-06
2.397578834e-06
2.424024108e-06
2.448679202e-06
2.47171361e-06
2.493265869e-06
2.513450134e-06
2.532362403e-06
2.550085187e-06
2.566691026e-06
2.582245699e-06
2.596810929e-06
2.610447634e-06
2.623214299e-06
2.635213193e-06
2.646220082e-06
2.658529984e-06
2.658094099e-06
2.722084591e-06
2.502089686e-06
3.266094077e-06
1.336050059e-06
5.808300474e-06
1.780921895e-06
0.0006076354705
0.0007686270171
9.888303948e-07
1.376435385e-06
1.592004988e-06
1.739402024e-06
1.851366754e-06
1.941294838e-06
2.016191236e-06
2.080202583e-06
2.135985984e-06
2.185343505e-06
2.229550119e-06
2.269537459e-06
2.30600346e-06
2.339481132e-06
2.370383799e-06
2.399036052e-06
2.425695241e-06
2.450567057e-06
2.473817161e-06
2.495580274e-06
2.515966566e-06
2.535067473e-06
2.552961176e-06
2.569716271e-06
2.585394884e-06
2.600055156e-06
2.613754551e-06
2.626546998e-06
2.63854101e-06
2.649440189e-06
2.661994561e-06
2.659581181e-06
2.731840585e-06
2.47928223e-06
3.342797475e-06
1.195109173e-06
6.192926005e-06
1.497488456e-05
0.0006433859205
0.0008178433633
9.886333944e-07
1.376261461e-06
1.591867995e-06
1.739307618e-06
1.851324321e-06
1.941316967e-06
2.016293508e-06
2.080402756e-06
2.136303317e-06
2.18579814e-06
2.23016249e-06
2.270327688e-06
2.306990669e-06
2.340682701e-06
2.371814921e-06
2.400709292e-06
2.427619819e-06
2.452748229e-06
2.476255673e-06
2.49827232e-06
2.518904359e-06
2.538238617e-06
2.556348107e-06
2.573296763e-06
2.58914266e-06
2.60394015e-06
2.617742828e-06
2.630599029e-06
2.642623649e-06
2.653437991e-06
2.66628766e-06
2.661783786e-06
2.74284729e-06
2.454946216e-06
3.433744568e-06
1.019336297e-06
7.018899193e-06
2.92377149e-05
0.000679395178
0.0008690548935
9.884345631e-07
1.376101093e-06
1.591742113e-06
1.739225e-06
1.851295882e-06
1.941357304e-06
2.016420731e-06
2.080637567e-06
2.136668266e-06
2.186316951e-06
2.230859438e-06
2.271226919e-06
2.308115322e-06
2.342054138e-06
2.373452361e-06
2.402629015e-06
2.42983432e-06
2.455265737e-06
2.479079789e-06
2.50140124e-06
2.522330994e-06
2.54195138e-06
2.560330331e-06
2.577526354e-06
2.593592754e-06
2.608579891e-06
2.622537524e-06
2.635507277e-06
2.647613941e-06
2.658361051e-06
2.671684502e-06
2.664428836e-06
2.756993812e-06
2.42532961e-06
3.543453575e-06
8.455540532e-07
8.228014832e-06
4.511342274e-05
0.0007152424441
0.0009223808087
9.882349647e-07
1.375955167e-06
1.591628627e-06
1.739155231e-06
1.851282422e-06
1.94141708e-06
2.01657477e-06
2.080909973e-06
2.137085407e-06
2.186906737e-06
2.231650659e-06
2.272248451e-06
2.309394974e-06
2.343618113e-06
2.375324688e-06
2.40483039e-06
2.43238131e-06
2.458170284e-06
2.482348702e-06
2.505035622e-06
2.526325499e-06
2.546294931e-06
2.565006978e-06
2.582514869e-06
2.59886678e-06
2.614108789e-06
2.628286969e-06
2.641435515e-06
2.653692147e-06
2.664416365e-06
2.678351396e-06
2.66808146e-06
2.772887462e-06
2.398684811e-06
3.630184173e-06
7.364518946e-07
1.061131719e-05
6.307150121e-05
0.0007505994872
0.0009779329622
9.880350902e-07
1.375821555e-06
1.591527391e-06
1.739098398e-06
1.851284215e-06
1.941497007e-06
2.01675715e-06
2.08122279e-06
2.137559427e-06
2.187574719e-06
2.232546692e-06
2.273406899e-06
2.31084916e-06
2.345400171e-06
2.37746437e-06
2.40735383e-06
2.435310253e-06
2.461521349e-06
2.486132564e-06
2.509256599e-06
2.530981062e-06
2.551375333e-06
2.570496534e-06
2.588393158e-06
2.605108876e-06
2.620685804e-06
2.635166994e-06
2.648578864e-06
2.661077274e-06
2.671842596e-06
2.686576229e-06
2.673001029e-06
2.79102072e-06
2.372193017e-06
3.733107467e-06
4.509724043e-07
1.100656393e-06
8.213583594e-05
0.0007848716217
0.001035543829
9.878362766e-07
1.375701623e-06
1.591440066e-06
1.73905601e-06
1.8513028e-06
1.941598995e-06
2.016970606e-06
2.08158015e-06
2.13809654e-06
2.18832998e-06
2.233560363e-06
2.274719678e-06
2.312501205e-06
2.347430734e-06
2.379910113e-06
2.41024764e-06
2.438680332e-06
2.465390151e-06
2.49051574e-06
2.514162457e-06
2.536410249e-06
2.557320334e-06
2.576942347e-06
2.595319661e-06
2.612492572e-06
2.628500906e-06
2.643386829e-06
2.65716997e-06
2.670030492e-06
2.680943235e-06
2.696616461e-06
2.680184917e-06
2.807404928e-06
2.373906871e-06
3.709847724e-06
4.667627782e-07
3.243663541e-06
0.0001051467238
0.0008179986969
0.001095062553
9.87641892e-07
1.375606619e-06
1.591373537e-06
1.739033653e-06
1.851343297e-06
1.941728313e-06
2.017221232e-06
2.081989725e-06
2.13870687e-06
2.189186089e-06
2.234709729e-06
2.276210396e-06
2.31438188e-06
2.349748959e-06
2.382710832e-06
2.413571938e-06
2.44256442e-06
2.469863897e-06
2.495601299e-06
2.519873477e-06
2.542751105e-06
2.564285911e-06
2.58451853e-06
2.603486164e-06
2.621227072e-06
2.637781883e-06
2.653196145e-06
2.667486448e-06
2.680861552e-06
2.692108093e-06
2.708655016e-06
2.691484341e-06
2.815564722e-06
2.435587165e-06
3.439239668e-06
1.213256531e-06
6.605293342e-06
0.0001329925412
0.0008489033175
0.001156955595
9.874544953e-07
1.375548858e-06
1.591335803e-06
1.73903843e-06
1.851412656e-06
1.941892381e-06
2.017517664e-06
2.082462245e-06
2.139404263e-06
2.19016124e-06
2.236018642e-06
2.277910236e-06
2.316531175e-06
2.352405145e-06
2.385928723e-06
2.41740254e-06
2.447053641e-06
2.475050686e-06
2.501516216e-06
2.526537217e-06
2.550173013e-06
2.572463437e-06
2.593437907e-06
2.613126116e-06
2.63156554e-06
2.648802327e-06
2.664893041e-06
2.679858568e-06
2.693949041e-06
2.705749146e-06
2.723415852e-06
2.705426915e-06
2.834246395e-06
2.43044273e-06
3.546268783e-06
1.113936825e-06
7.724033606e-06
8.833400843e-06
0.0008818430256
0.00122137502
9.872739656e-07
1.375530574e-06
1.591330418e-06
1.739074989e-06
1.851516512e-06
1.942098158e-06
2.017868817e-06
2.083009497e-06
2.140204531e-06
2.191276659e-06
2.237515271e-06
2.279856715e-06
2.318997717e-06
2.355461213e-06
2.389641325e-06
2.421834754e-06
2.452262781e-06
2.481086482e-06
2.5084195e-06
2.534337489e-06
2.558886172e-06
2.582090083e-06
2.603963742e-06
2.624526974e-06
2.643817375e-06
2.661893114e-06
2.678834357e-06
2.694679562e-06
2.709749436e-06
2.722347474e-06
2.741798612e-06
2.722136447e-06
2.858663647e-06
2.429183607e-06
3.754463238e-06
9.112778873e-08
8.148203619e-06
2.232843527e-05
0.0009158352418
0.001288200672
9.871021256e-07
1.375554188e-06
1.591361435e-06
1.73914858e-06
1.851661438e-06
1.942354043e-06
2.018285657e-06
2.083646051e-06
2.141127228e-06
2.192558549e-06
2.239234228e-06
2.282095235e-06
2.321840348e-06
2.358992515e-06
2.393943791e-06
2.426986639e-06
2.458335684e-06
2.488143642e-06
2.516513973e-06
2.543509018e-06
2.569158296e-06
2.593466534e-06
2.616427679e-06
2.638047684e-06
2.658364824e-06
2.677457547e-06
2.69544857e-06
2.712419959e-06
2.728786594e-06
2.742654767e-06
2.763927878e-06
2.745817606e-06
2.875319847e-06
2.522500445e-06
3.401965839e-06
1.223454567e-06
9.341148075e-06
3.664244698e-05
0.0009491117636
0.001357448206
9.869445791e-07
1.375631544e-06
1.591439205e-06
1.73926997e-06
1.851859412e-06
1.942674054e-06
2.018785264e-06
2.084393318e-06
2.142199793e-06
2.19404252e-06
2.241221821e-06
2.284685017e-06
2.325134299e-06
2.363093827e-06
2.398954303e-06
2.433004016e-06
2.465450773e-06
2.496438133e-06
2.526057024e-06
2.55435345e-06
2.581336264e-06
2.606982983e-06
2.631257745e-06
2.654146215e-06
2.675687784e-06
2.695992034e-06
2.715252874e-06
2.733635875e-06
2.751714129e-06
2.767422169e-06
2.790721471e-06
2.778392651e-06
2.893707134e-06
2.552671944e-06
3.637560897e-06
2.601446669e-06
1.061198163e-05
5.261176591e-05
0.0009814786313
0.001429118135
9.868074636e-07
1.375775961e-06
1.591577732e-06
1.739454795e-06
1.852128125e-06
1.943078733e-06
2.019392188e-06
2.08528139e-06
2.143459843e-06
2.195776273e-06
2.243539338e-06
2.287704177e-06
2.32897839e-06
2.367888744e-06
2.404825339e-06
2.440072906e-06
2.473833258e-06
2.506240813e-06
2.537372579e-06
2.56725491e-06
2.595868422e-06
2.623149994e-06
2.64901672e-06
2.673421266e-06
2.696402939e-06
2.718117907e-06
2.738875495e-06
2.758986179e-06
2.779354793e-06
2.797099416e-06
2.826835966e-06
2.804608908e-06
2.965223568e-06
2.558150606e-06
3.570313793e-06
1.193177802e-06
1.215432602e-05
6.822962643e-05
0.001012491726
0.001503244838
9.866983654e-07
1.376002253e-06
1.591793787e-06
1.739722742e-06
1.852490641e-06
1.943595377e-06
2.020139239e-06
2.086350432e-06
2.144957342e-06
2.197822548e-06
2.246266311e-06
2.291253892e-06
2.333500774e-06
2.373538003e-06
2.411755932e-06
2.448436408e-06
2.483776116e-06
2.517901483e-06
2.550876741e-06
2.582706693e-06
2.613334518e-06
2.642635764e-06
2.670449194e-06
2.696667571e-06
2.721320882e-06
2.744631029e-06
2.76709007e-06
2.789284646e-06
2.812473896e-06
2.833931265e-06
2.867662507e-06
2.854739483e-06
3.005885328e-06
2.634887922e-06
3.583293275e-06
1.703415871e-06
1.454957136e-05
8.472532341e-05
0.001041966172
0.001580020115
9.866270094e-07
1.376328269e-06
1.592108888e-06
1.740099783e-06
1.852977829e-06
1.944260735e-06
2.021070572e-06
2.08765427e-06
2.14675897e-06
2.200264721e-06
2.249507481e-06
2.295466561e-06
2.338868191e-06
2.380249871e-06
2.420003491e-06
2.458409192e-06
2.495660426e-06
2.531878732e-06
2.567119149e-06
2.601365213e-06
2.634513041e-06
2.666346444e-06
2.69657423e-06
2.724979756e-06
2.751554907e-06
2.776602541e-06
2.800909091e-06
2.825506084e-06
2.852452934e-06
2.878142823e-06
2.92146697e-06
2.908591968e-06
3.081993112e-06
2.73064203e-06
3.508282207e-06
1.981731123e-06
1.820834255e-05
0.0001040934765
0.001069260629
0.001659555175
9.866067947e-07
1.376778006e-06
1.592551946e-06
1.740620886e-06
1.853631317e-06
1.945124282e-06
2.022245374e-06
2.089264657e-06
2.148953109e-06
2.203212933e-06
2.253401368e-06
2.300517291e-06
2.345300754e-06
2.38829822e-06
2.429905348e-06
2.470403671e-06
2.509990008e-06
2.548791044e-06
2.586864215e-06
2.624173424e-06
2.660563138e-06
2.69566211e-06
2.728964057e-06
2.760063689e-06
2.788848534e-06
2.815707088e-06
2.841878053e-06
2.869208737e-06
2.900926526e-06
2.932335905e-06
2.990779581e-06
2.973123275e-06
3.201925801e-06
2.736797266e-06
4.091629249e-06
7.609082272e-07
1.510166125e-05
0.0001160089591
0.001093382155
0.00174180739
9.866545298e-07
1.377380463e-06
1.593159709e-06
1.741331432e-06
1.854505683e-06
1.946251144e-06
2.023741612e-06
2.091276074e-06
2.151655887e-06
2.206812031e-06
2.258131435e-06
2.306638763e-06
2.353092087e-06
2.398051769e-06
2.441924938e-06
2.485003589e-06
2.527504399e-06
2.569580605e-06
2.611311736e-06
2.652628598e-06
2.69335797e-06
2.732810864e-06
2.770145706e-06
2.804669386e-06
2.836033832e-06
2.864687407e-06
2.892492611e-06
2.922893562e-06
2.960132991e-06
3.002585299e-06
3.073708655e-06
3.07814652e-06
3.312690298e-06
2.927244599e-06
4.181660335e-06
4.554003352e-07
1.617751436e-05
0.0001273894318
0.001115508613
0.001826789218
9.867918405e-07
1.378172756e-06
1.59397993e-06
1.742290863e-06
1.855672669e-06
1.947726956e-06
2.025661797e-06
2.093812947e-06
2.155020578e-06
2.211255143e-06
2.263945684e-06
2.314150839e-06
2.362657579e-06
2.410057173e-06
2.456782194e-06
2.503146746e-06
2.549387246e-06
2.59566843e-06
2.642045577e-06
2.688385343e-06
2.734529587e-06
2.779325443e-06
2.821545266e-06
2.860064461e-06
2.894076664e-06
2.923895464e-06
2.952193215e-06
2.984935499e-06
3.029308631e-06
3.088678091e-06
3.177651089e-06
3.223868926e-06
3.506033331e-06
3.110270412e-06
4.017718588e-06
2.17507563e-06
2.684118926e-05
0.0001680259225
0.001136201406
0.001914679964
9.870461238e-07
1.379202591e-06
1.595074605e-06
1.74357686e-06
1.857226324e-06
1.949663954e-06
2.028140632e-06
2.097040191e-06
2.159254278e-06
2.21681225e-06
2.271204521e-06
2.323542868e-06
2.374671255e-06
2.425236623e-06
2.475593731e-06
2.525981344e-06
2.576430092e-06
2.626868916e-06
2.677094332e-06
2.727478111e-06
2.776950021e-06
2.825548618e-06
2.871642876e-06
2.912509195e-06
2.946646365e-06
2.973903234e-06
2.998272352e-06
3.028552915e-06
3.08379224e-06
3.156263953e-06
3.295032847e-06
3.406315182e-06
3.731767427e-06
3.392523229e-06
4.529904867e-06
3.086463472e-06
2.85996045e-06
0.0001234251723
0.001151589797
0.00200575092
9.874551227e-07
1.380535249e-06
1.596526797e-06
1.745292447e-06
1.859291664e-06
1.952212393e-06
2.031362823e-06
2.101193183e-06
2.164671679e-06
2.223919416e-06
2.280510444e-06
2.335613601e-06
2.390096367e-06
2.444428789e-06
2.498094172e-06
2.550741697e-06
2.601622338e-06
2.650413134e-06
2.697525527e-06
2.748484412e-06
2.794945182e-06
2.847800098e-06
2.901869865e-06
2.945458338e-06
2.976596661e-06
2.996330644e-06
3.012691459e-06
3.038373557e-06
3.114795245e-06
3.176889913e-06
3.407825957e-06
3.494246665e-06
3.953561259e-06
3.858954723e-06
5.195984426e-06
2.820020314e-06
2.684454095e-05
0.0001862416141
0.001162698257
0.002100153739
9.880770524e-07
1.382262045e-06
1.59845554e-06
1.747584814e-06
1.862052615e-06
1.955607607e-06
2.035639149e-06
2.106693114e-06
2.171845063e-06
2.233299741e-06
2.292587029e-06
2.350589926e-06
2.407520531e-06
2.462184437e-06
2.512021645e-06
2.556440916e-06
2.596894246e-06
2.638823263e-06
2.692848705e-06
2.785145229e-06
2.87641852e-06
3.009263798e-06
3.150468875e-06
3.251040326e-06
3.30805947e-06
3.33560189e-06
3.363923354e-06
3.431170011e-06
3.580429737e-06
3.631353329e-06
3.860599766e-06
3.547172093e-06
4.091265778e-06
3.918215678e-06
6.219249862e-06