/*--------------------------------*- C++ -*----------------------------------*\
| =========                 |                                                 |
| \\      /  F ield         | OpenFOAM: The Open Source CFD Toolbox           |
|  \\    /   O peration     | Version:  v1912                                 |
|   \\  /    A nd           | Website:  www.openfoam.com                      |
|    \\/     M anipulation  |                                                 |
\*---------------------------------------------------------------------------*/
FoamFile
{
    version     2.0;
    format      ascii;
    class       volScalarField;
    location    "0.8";
    object      nut.gas;
}
// * * * * * * * * * * * * * * * * * * * * * * * * * * * * * * * * * * * * * //

dimensions      [0 2 -1 0 0 0 0];


internalField   nonuniform List<scalar> 
4800
(
1.466383315e-08
2.970952339e-08
4.105081271e-08
5.069832829e-08
5.940534389e-08
6.755607537e-08
7.53934563e-08
8.309086767e-08
9.078221491e-08
9.857673869e-08
1.065670696e-07
1.148339631e-07
1.234492656e-07
1.324778906e-07
1.419792368e-07
1.520082991e-07
1.626166339e-07
1.738532885e-07
1.85765775e-07
1.984011502e-07
2.118072549e-07
2.26034159e-07
2.411358594e-07
2.571722827e-07
2.7421167e-07
2.923334224e-07
3.116315256e-07
3.322187592e-07
3.542321886e-07
3.778389986e-07
4.032511168e-07
4.307166716e-07
4.605668976e-07
4.9364563e-07
5.271646036e-07
5.787516617e-07
5.896058437e-07
7.161112643e-07
5.623195517e-07
1.070903933e-06
2.3156702e-08
4.733100823e-08
6.569988289e-08
8.124123938e-08
9.50169515e-08
1.075391044e-07
1.191071102e-07
1.299153291e-07
1.400988515e-07
1.497563386e-07
1.589626305e-07
1.677762495e-07
1.762441321e-07
1.844047578e-07
1.922903012e-07
1.99928163e-07
2.073420928e-07
2.145530351e-07
2.215797837e-07
2.284394998e-07
2.35148134e-07
2.417207796e-07
2.481719761e-07
2.545159821e-07
2.607670267e-07
2.669395524e-07
2.730484612e-07
2.791093197e-07
2.851389946e-07
2.91152605e-07
2.971869513e-07
3.031562071e-07
3.096112588e-07
3.143009447e-07
3.254611186e-07
3.164912649e-07
3.633619685e-07
2.685038442e-07
6.422726635e-07
1.563875814e-06
2.253939885e-08
4.60448831e-08
6.390358339e-08
7.901550706e-08
9.241525708e-08
1.046012574e-07
1.158646527e-07
1.263942703e-07
1.36321209e-07
1.457410729e-07
1.547262269e-07
1.633330746e-07
1.716066345e-07
1.79583555e-07
1.87294174e-07
1.947639727e-07
2.020146286e-07
2.090647961e-07
2.159306971e-07
2.226265765e-07
2.291650592e-07
2.35557435e-07
2.418138915e-07
2.479437077e-07
2.539554221e-07
2.598569854e-07
2.656559078e-07
2.713593953e-07
2.769746889e-07
2.825078794e-07
2.879750019e-07
2.933279685e-07
2.989120473e-07
3.029710975e-07
3.137210362e-07
2.971563367e-07
3.693624977e-07
1.559517874e-07
6.896405732e-07
1.791728317e-06
2.258937095e-08
4.615496776e-08
6.40608417e-08
7.921257125e-08
9.264712509e-08
1.048641472e-07
1.161555439e-07
1.267106601e-07
1.366609678e-07
1.461023507e-07
1.551073906e-07
1.637326638e-07
1.720233317e-07
1.800161628e-07
1.877416007e-07
1.952252223e-07
2.024887947e-07
2.095510598e-07
2.164283276e-07
2.231349339e-07
2.296836001e-07
2.3608572e-07
2.423515948e-07
2.484906296e-07
2.545115035e-07
2.604223272e-07
2.662307909e-07
2.719443188e-07
2.77570256e-07
2.831160642e-07
2.885897437e-07
2.939968771e-07
2.993899004e-07
3.043567925e-07
3.120843734e-07
3.035972378e-07
3.642726444e-07
1.445829722e-07
8.947790865e-07
1.967140373e-06
2.258392239e-08
4.614252413e-08
6.404312742e-08
7.919039118e-08
9.262108342e-08
1.048347143e-07
1.161231051e-07
1.266755413e-07
1.366234522e-07
1.460626873e-07
1.550657989e-07
1.636893373e-07
1.719784386e-07
1.799698467e-07
1.876939794e-07
1.951763863e-07
2.024388053e-07
2.094999458e-07
2.163760821e-07
2.2308151e-07
2.296289052e-07
2.360296092e-07
2.422938615e-07
2.484309932e-07
2.544495911e-07
2.603576485e-07
2.661627007e-07
2.718719665e-07
2.774924144e-07
2.830315678e-07
2.884935291e-07
2.939000849e-07
2.992227038e-07
3.04361736e-07
3.112991385e-07
3.065279097e-07
3.474074982e-07
2.178150982e-07
8.048541625e-07
2.11927877e-06
2.258317448e-08
4.614115874e-08
6.404168846e-08
7.918891378e-08
9.261963249e-08
1.048333455e-07
1.161218685e-07
1.266744832e-07
1.366226154e-07
1.460621098e-07
1.550655124e-07
1.63689365e-07
1.71978793e-07
1.799705273e-07
1.8769497e-07
1.951776525e-07
2.024402918e-07
2.095015736e-07
2.163777456e-07
2.230830734e-07
2.296301987e-07
2.360304242e-07
2.422939441e-07
2.484300351e-07
2.544472166e-07
2.603533943e-07
2.6615599e-07
2.718620663e-07
2.774783487e-07
2.830121891e-07
2.884658352e-07
2.938701363e-07
2.99135532e-07
3.044861493e-07
3.103004529e-07
3.099396802e-07
3.392165438e-07
3.180812334e-07
6.542895513e-07
2.264420815e-06
2.258196568e-08
4.61386542e-08
6.403860912e-08
7.918536948e-08
9.261574836e-08
1.048292255e-07
1.161176032e-07
1.266701537e-07
1.366182949e-07
1.460578627e-07
1.550613934e-07
1.636854165e-07
1.719750431e-07
1.799669869e-07
1.876916302e-07
1.951744811e-07
2.024372305e-07
2.094985347e-07
2.16374608e-07
2.230796792e-07
2.296263487e-07
2.360258725e-07
2.422883915e-07
2.484231201e-07
2.544385031e-07
2.603423518e-07
2.66141971e-07
2.718442665e-07
2.774557806e-07
2.829835091e-07
2.884285256e-07
2.938351843e-07
2.989849585e-07
3.049129129e-07
3.083093752e-07
3.144437995e-07
3.330371805e-07
2.283259051e-07
8.584428895e-07
2.394414355e-06
2.258075355e-08
4.61361695e-08
6.403563501e-08
7.918201e-08
9.261213003e-08
1.048254541e-07
1.161137713e-07
1.266663455e-07
1.366145865e-07
1.460543213e-07
1.550580753e-07
1.636823649e-07
1.719722851e-07
1.799645302e-07
1.876894597e-07
1.951725558e-07
2.024354793e-07
2.094968531e-07
2.163728544e-07
2.23077671e-07
2.296238578e-07
2.360226204e-07
2.422840434e-07
2.484172775e-07
2.544306944e-07
2.603320167e-07
2.661284406e-07
2.718267454e-07
2.774332674e-07
2.829551979e-07
2.88389323e-07
2.938142839e-07
2.987523083e-07
3.058895122e-07
3.029368002e-07
3.347383871e-07
2.601327141e-07
3.296916886e-07
1.530965413e-06
2.534486313e-06
2.257949213e-08
4.613358476e-08
6.403258427e-08
7.917860032e-08
9.260849648e-08
1.0482171e-07
1.161100169e-07
1.26662672e-07
1.36611077e-07
1.460510497e-07
1.550551037e-07
1.636797409e-07
1.719700382e-07
1.799626684e-07
1.876879654e-07
1.951713819e-07
2.024345455e-07
2.094960416e-07
2.163720063e-07
2.23076582e-07
2.296222744e-07
2.360202358e-07
2.422804921e-07
2.484121299e-07
2.544234506e-07
2.603220973e-07
2.661151678e-07
2.718093535e-07
2.774106741e-07
2.829278933e-07
2.883438779e-07
2.938322666e-07
2.983530401e-07
3.073312045e-07
2.974693038e-07
3.477336881e-07
1.987952428e-07
5.559906318e-07
1.82459961e-06
2.676341633e-06
2.257818296e-08
4.613090952e-08
6.402947394e-08
7.917516483e-08
9.260487967e-08
1.048180333e-07
1.161063884e-07
1.266591912e-07
1.366078351e-07
1.460481284e-07
1.550525722e-07
1.636776526e-07
1.71968427e-07
1.799615443e-07
1.876873103e-07
1.95171145e-07
2.024346392e-07
2.094963371e-07
2.163723296e-07
2.230767103e-07
2.296219322e-07
2.360190913e-07
2.42278154e-07
2.484081435e-07
2.544172945e-07
2.603131809e-07
2.661028175e-07
2.717928223e-07
2.773889776e-07
2.829014105e-07
2.88300881e-07
2.938435523e-07
2.980321333e-07
3.08139807e-07
2.962617755e-07
3.448388971e-07
2.152569787e-07
2.082442449e-07
2.093134494e-06
2.819777197e-06
2.25768234e-08
4.612814169e-08
6.40263021e-08
7.917170274e-08
9.260128071e-08
1.048144281e-07
1.161028943e-07
1.266559171e-07
1.366048822e-07
1.460455878e-07
1.550505223e-07
1.63676155e-07
1.71967522e-07
1.799612464e-07
1.87687603e-07
1.951719764e-07
2.024359168e-07
2.094979237e-07
2.16374039e-07
2.230783034e-07
2.296231143e-07
2.36019509e-07
2.422773934e-07
2.484057287e-07
2.544126869e-07
2.603057798e-07
2.660919579e-07
2.717777736e-07
2.773689378e-07
2.828754794e-07
2.882704396e-07
2.937794281e-07
2.981523908e-07
3.073681663e-07
2.971625704e-07
3.521182267e-07
6.410828038e-08
5.955362878e-07
2.327869487e-06
2.962805859e-06
2.257541161e-08
4.612528191e-08
6.402307066e-08
7.916821811e-08
9.259770657e-08
1.048109052e-07
1.160995507e-07
1.266528729e-07
1.3660225e-07
1.460434706e-07
1.550490097e-07
1.636753191e-07
1.719674122e-07
1.799618841e-07
1.876889763e-07
1.951740347e-07
2.024385656e-07
2.0950102e-07
2.163773868e-07
2.230816502e-07
2.296261483e-07
2.360218577e-07
2.422786225e-07
2.484053433e-07
2.544101324e-07
2.603004442e-07
2.66083183e-07
2.717648428e-07
2.773512278e-07
2.828509369e-07
2.882498639e-07
2.936749033e-07
2.984917613e-07
3.056194955e-07
3.035775834e-07
3.308409905e-07
2.195099888e-07
9.060780987e-07
2.546279338e-06
3.106120469e-06
2.257394598e-08
4.6122332e-08
6.401978275e-08
7.916471643e-08
9.259416587e-08
1.048074775e-07
1.160963762e-07
1.266500847e-07
1.365999744e-07
1.460418245e-07
1.550480968e-07
1.636752245e-07
1.719681973e-07
1.799635802e-07
1.876915791e-07
1.951774981e-07
2.024427959e-07
2.095058711e-07
2.163826555e-07
2.23087073e-07
2.296313987e-07
2.360265453e-07
2.422822939e-07
2.484074852e-07
2.544101723e-07
2.602977581e-07
2.660771117e-07
2.71754685e-07
2.773364215e-07
2.828292983e-07
2.882321761e-07
2.935845765e-07
2.987396127e-07
3.044363432e-07
3.068381591e-07
3.238089328e-07
2.524355625e-07
3.54927849e-07
2.752512169e-06
3.250351028e-06
2.257242523e-08
4.611929514e-08
6.401644297e-08
7.916120488e-08
9.259066917e-08
1.048041601e-07
1.160933922e-07
1.266475822e-07
1.365980956e-07
1.460407031e-07
1.550478532e-07
1.636759603e-07
1.719699889e-07
1.799664725e-07
1.876955786e-07
1.951825663e-07
2.024488434e-07
2.095127518e-07
2.163901618e-07
2.230949325e-07
2.296392719e-07
2.360340251e-07
2.422889085e-07
2.484127001e-07
2.544133955e-07
2.602983509e-07
2.660744044e-07
2.71747984e-07
2.773251057e-07
2.828119499e-07
2.882138347e-07
2.935264185e-07
2.988612234e-07
3.03683687e-07
3.092127228e-07
3.195668727e-07
2.089005553e-07
6.120862616e-07
2.952851947e-06
3.394855193e-06
2.257084836e-08
4.611617592e-08
6.401305735e-08
7.915769221e-08
9.25872288e-08
1.048009704e-07
1.160906226e-07
1.266453983e-07
1.365966584e-07
1.460401658e-07
1.550483564e-07
1.636776254e-07
1.719729113e-07
1.799707143e-07
1.87701161e-07
1.951894625e-07
2.024569717e-07
2.095219693e-07
2.164002596e-07
2.231056318e-07
2.296502219e-07
2.360448032e-07
2.422990229e-07
2.484215918e-07
2.544204504e-07
2.603029118e-07
2.660757829e-07
2.717454654e-07
2.773181213e-07
2.827987782e-07
2.882018755e-07
2.934625306e-07
2.990455653e-07
3.026305096e-07
3.131702843e-07
3.052554896e-07
2.513008495e-07
8.178390626e-07
3.143623236e-06
3.539444467e-06
2.256921469e-08
4.611298041e-08
6.400963336e-08
7.915418871e-08
9.25838588e-08
1.047979274e-07
1.160880939e-07
1.266435693e-07
1.365957116e-07
1.460402778e-07
1.550496914e-07
1.63680329e-07
1.71977102e-07
1.799764757e-07
1.877085336e-07
1.951984353e-07
2.024674748e-07
2.095338669e-07
2.164133447e-07
2.231196219e-07
2.296647568e-07
2.360594456e-07
2.423132587e-07
2.484348361e-07
2.544320623e-07
2.603122077e-07
2.660820484e-07
2.717479673e-07
2.773162237e-07
2.827913119e-07
2.881918125e-07
2.934261171e-07
2.991330126e-07
3.019124628e-07
3.156601793e-07
3.042020231e-07
4.182615701e-07
1.000864459e-06
3.326758209e-06
3.684404596e-06
2.256752384e-08
4.610971627e-08
6.400617993e-08
7.915070613e-08
9.258057468e-08
1.047950522e-07
1.160858344e-07
1.26642134e-07
1.365953083e-07
1.460411097e-07
1.550519513e-07
1.636841907e-07
1.719827122e-07
1.799839448e-07
1.877179262e-07
1.952097612e-07
2.024806806e-07
2.095488283e-07
2.164298603e-07
2.231374082e-07
2.296834466e-07
2.360785866e-07
2.423323144e-07
2.48453196e-07
2.544490525e-07
2.60327106e-07
2.66094107e-07
2.717564122e-07
2.773205017e-07
2.827891327e-07
2.881949631e-07
2.933538962e-07
2.994167443e-07
3.005947712e-07
3.202336724e-07
2.952183823e-07
3.977046363e-07
1.18775885e-06
3.504049343e-06
3.830545335e-06
2.256577573e-08
4.610639287e-08
6.400270747e-08
7.914725758e-08
9.257739335e-08
1.047923671e-07
1.160838746e-07
1.26641134e-07
1.365955052e-07
1.460427383e-07
1.55055237e-07
1.636893413e-07
1.719899083e-07
1.79993329e-07
1.877295933e-07
1.952237476e-07
2.024969548e-07
2.095672825e-07
2.16450303e-07
2.231595588e-07
2.297069322e-07
2.361029406e-07
2.4235698e-07
2.484775357e-07
2.544723548e-07
2.603486e-07
2.661129957e-07
2.717718671e-07
2.773320418e-07
2.82793321e-07
2.882127105e-07
2.932392343e-07
2.999843708e-07
2.981092674e-07
3.275095798e-07
2.752358617e-07
1.816849455e-07
1.389755881e-06
3.673413983e-06
3.978791043e-06
2.256397063e-08
4.610302141e-08
6.399922783e-08
7.914385745e-08
9.257433284e-08
1.047898959e-07
1.160822468e-07
1.266406135e-07
1.365963628e-07
1.460452453e-07
1.550596577e-07
1.636959236e-07
1.719988726e-07
1.800048572e-07
1.877438169e-07
1.952407363e-07
2.025167057e-07
2.095897102e-07
2.164752309e-07
2.231867134e-07
2.297359381e-07
2.361333191e-07
2.423881551e-07
2.485088381e-07
2.545030322e-07
2.603778312e-07
2.66139916e-07
2.7179559e-07
2.773519225e-07
2.828068301e-07
2.882328663e-07
2.931756089e-07
3.003064014e-07
2.970206375e-07
3.283440687e-07
2.820059833e-07
3.199617117e-07
4.363396577e-07
3.841413103e-06
4.128816111e-06
2.256210911e-08
4.609961503e-08
6.399575433e-08
7.914052128e-08
9.257141213e-08
1.047876632e-07
1.160809846e-07
1.266406189e-07
1.365979451e-07
1.460487185e-07
1.550653314e-07
1.637040925e-07
1.720098048e-07
1.800187815e-07
1.877609094e-07
1.952611081e-07
2.025403898e-07
2.096166505e-07
2.165052727e-07
2.232195951e-07
2.297712863e-07
2.361706477e-07
2.424268673e-07
2.485482309e-07
2.545423074e-07
2.604161123e-07
2.661762678e-07
2.718290395e-07
2.773816581e-07
2.828309959e-07
2.882582547e-07
2.931514601e-07
3.005255549e-07
2.959039334e-07
3.332339942e-07
2.615449938e-07
1.442595166e-07
6.811889548e-07
4.009699423e-06
4.280173547e-06
2.25601921e-08
4.609618899e-08
6.399230176e-08
7.913726565e-08
9.256865088e-08
1.047856942e-07
1.160801224e-07
1.266411987e-07
1.366003199e-07
1.460532513e-07
1.550723847e-07
1.637140164e-07
1.720229237e-07
1.8003538e-07
1.877812177e-07
1.952852875e-07
2.025685184e-07
2.096487103e-07
2.16541138e-07
2.232590236e-07
2.298139126e-07
2.36215982e-07
2.424742944e-07
2.485970143e-07
2.545915993e-07
2.604649709e-07
2.662236812e-07
2.718739338e-07
2.774231048e-07
2.828669947e-07
2.882949941e-07
2.93149133e-07
3.006463304e-07
2.956881351e-07
3.338926699e-07
2.468898931e-07
2.354483869e-07
9.157429235e-07
4.173541606e-06
4.433050696e-06
2.255822086e-08
4.609276078e-08
6.398888636e-08
7.913410805e-08
9.256606922e-08
1.047840142e-07
1.16079695e-07
1.26642403e-07
1.366035591e-07
1.460589441e-07
1.550809549e-07
1.637258786e-07
1.720384691e-07
1.800549599e-07
1.878051272e-07
1.953137492e-07
2.026016658e-07
2.096865739e-07
2.16583631e-07
2.233059314e-07
2.298648857e-07
2.362705319e-07
2.425317913e-07
2.486566905e-07
2.546525572e-07
2.605261972e-07
2.662840724e-07
2.719323155e-07
2.774783515e-07
2.829174246e-07
2.883431561e-07
2.931742032e-07
3.007459402e-07
2.954451998e-07
3.340431016e-07
2.586871205e-07
4.233401286e-07
1.13670114e-06
4.332591181e-06
4.58761515e-06
2.255619699e-08
4.608935037e-08
6.398552591e-08
7.913106682e-08
9.256368761e-08
1.047826488e-07
1.160797378e-07
1.266442829e-07
1.366077372e-07
1.460659045e-07
1.550911912e-07
1.637398808e-07
1.720567062e-07
1.800778624e-07
1.878330682e-07
1.953470251e-07
2.026404789e-07
2.097310149e-07
2.166336645e-07
2.233613821e-07
2.299254288e-07
2.363356877e-07
2.42600922e-07
2.487290011e-07
2.547271015e-07
2.606018903e-07
2.663597104e-07
2.720066039e-07
2.775499721e-07
2.829849265e-07
2.884053569e-07
2.932362166e-07
3.007300386e-07
2.959493372e-07
3.327636007e-07
2.463202111e-07
2.629472022e-07
1.353897921e-06
4.486009991e-06
4.743512881e-06
2.25541225e-08
4.608598032e-08
6.39822397e-08
7.912816109e-08
9.256152669e-08
1.047816236e-07
1.160802862e-07
1.266468909e-07
1.366129325e-07
1.460742461e-07
1.551032558e-07
1.637562455e-07
1.720779307e-07
1.801044698e-07
1.878655235e-07
1.953857137e-07
2.026856872e-07
2.097829092e-07
2.16692277e-07
2.234265913e-07
2.299969458e-07
2.364130512e-07
2.426834944e-07
2.488159673e-07
2.548174729e-07
2.606945123e-07
2.664532794e-07
2.720996828e-07
2.776411342e-07
2.830719267e-07
2.88492222e-07
2.932825903e-07
3.009767614e-07
2.951094032e-07
3.357830988e-07
2.317329046e-07
3.360752254e-07
1.543454843e-06
4.633431167e-06
4.900628193e-06
2.255199963e-08
4.608267549e-08
6.397904834e-08
7.91254105e-08
9.255960696e-08
1.047809638e-07
1.160813761e-07
1.266502811e-07
1.366192271e-07
1.460840907e-07
1.551173228e-07
1.637752151e-07
1.721024707e-07
1.801352114e-07
1.879030393e-07
1.954304937e-07
2.027381185e-07
2.09843254e-07
2.167606538e-07
2.23502951e-07
2.300810512e-07
2.365044719e-07
2.42781604e-07
2.489199413e-07
2.549262896e-07
2.608069562e-07
2.665679524e-07
2.722150016e-07
2.777555516e-07
2.831826092e-07
2.886041715e-07
2.933566952e-07
3.011949469e-07
2.946635731e-07
3.371469832e-07
2.289698653e-07
3.981499018e-07
1.771544366e-06
4.774457212e-06
5.059894286e-06
2.254983068e-08
4.607946325e-08
6.397597369e-08
7.912283514e-08
9.25579487e-08
1.047806941e-07
1.160830433e-07
1.266545093e-07
1.366267075e-07
1.460955689e-07
1.551335814e-07
1.637970545e-07
1.721306853e-07
1.801705636e-07
1.879462302e-07
1.954821388e-07
2.02798727e-07
2.099132031e-07
2.168401623e-07
2.235920649e-07
2.301796113e-07
2.366120965e-07
2.428976921e-07
2.490436727e-07
2.55056625e-07
2.609426331e-07
2.667074916e-07
2.723566712e-07
2.778977901e-07
2.833210049e-07
2.887523226e-07
2.934237328e-07
3.016110677e-07
2.935814593e-07
3.403914772e-07
2.208413162e-07
4.669099854e-07
6.167161815e-07
4.91171303e-06
5.221787049e-06
2.254761917e-08
4.607637763e-08
6.397304185e-08
7.912045805e-08
9.255657431e-08
1.04780841e-07
1.160853258e-07
1.266596351e-07
1.366354676e-07
1.461088234e-07
1.551522415e-07
1.638220601e-07
1.72162979e-07
1.802110606e-07
1.879957889e-07
1.955415356e-07
2.028686201e-07
2.099941058e-07
2.169324136e-07
2.236958169e-07
2.302948088e-07
2.367384373e-07
2.430346237e-07
2.491903978e-07
2.552121051e-07
2.611055816e-07
2.668763707e-07
2.725296259e-07
2.780732031e-07
2.83493335e-07
2.889404113e-07
2.935057998e-07
3.021510737e-07
2.922403454e-07
3.443652858e-07
2.088684055e-07
4.821408448e-07
8.386986538e-07
5.054118118e-06
5.385403339e-06
2.254537302e-08
4.607346647e-08
6.397028933e-08
7.911831088e-08
9.255551363e-08
1.047814382e-07
1.1608827e-07
1.26665729e-07
1.366456168e-07
1.461240207e-07
1.551735472e-07
1.638505781e-07
1.721998269e-07
1.802573334e-07
1.880525317e-07
1.956097153e-07
2.029490835e-07
2.100875395e-07
2.170393055e-07
2.238164375e-07
2.304292226e-07
2.368864604e-07
2.431957833e-07
2.49363941e-07
2.553970152e-07
2.613005804e-07
2.670799039e-07
2.727397636e-07
2.782882525e-07
2.837071392e-07
2.891733099e-07
2.936273121e-07
3.027591518e-07
2.908025293e-07
3.490184016e-07
1.928979917e-07
5.133190923e-07
1.107818553e-06
5.193754178e-06
5.550319469e-06
2.254310578e-08
4.607078206e-08
6.396775997e-08
7.911643177e-08
9.255480272e-08
1.047825267e-07
1.160919324e-07
1.266728771e-07
1.36657288e-07
1.461413614e-07
1.55197792e-07
1.638830239e-07
1.722417953e-07
1.803101332e-07
1.881174338e-07
1.956879091e-07
2.030416285e-07
2.101953291e-07
2.171630345e-07
2.239565513e-07
2.305859035e-07
2.370596478e-07
2.433851322e-07
2.4956879e-07
2.556164031e-07
2.615332715e-07
2.673243857e-07
2.729940879e-07
2.785508863e-07
2.839702055e-07
2.894658204e-07
2.937731666e-07
3.035389037e-07
2.890430778e-07
3.545501767e-07
1.756870091e-07
5.558092867e-07
1.351931846e-06
5.329197979e-06
5.716758183e-06
2.254082955e-08
4.606833925e-08
6.396547957e-08
7.911484489e-08
9.255446627e-08
1.047841399e-07
1.160963666e-07
1.266811691e-07
1.366706271e-07
1.461610718e-07
1.552253116e-07
1.639198747e-07
1.722895353e-07
1.803703268e-07
1.881916186e-07
1.957775367e-07
2.031480164e-07
2.103196215e-07
2.173061629e-07
2.241191898e-07
2.307684156e-07
2.372620988e-07
2.436073119e-07
2.498101796e-07
2.558761668e-07
2.618102853e-07
2.676172558e-07
2.733009481e-07
2.788704418e-07
2.842934405e-07
2.898267604e-07
2.939744621e-07
3.044125741e-07
2.874509717e-07
3.588629824e-07
1.639612247e-07
6.312077689e-07
1.585302721e-06
5.459578227e-06
5.884964703e-06
2.253854995e-08
4.606610247e-08
6.396344526e-08
7.911355218e-08
9.255451107e-08
1.047862968e-07
1.161016164e-07
1.266906905e-07
1.366857836e-07
1.461833922e-07
1.552564708e-07
1.639616545e-07
1.723437707e-07
1.804388895e-07
1.882763606e-07
1.958802266e-07
2.032702895e-07
2.104629303e-07
2.174717205e-07
2.243079303e-07
2.309809501e-07
2.374986751e-07
2.438678533e-07
2.500943254e-07
2.56183271e-07
2.621394316e-07
2.679672955e-07
2.736702485e-07
2.792582152e-07
2.846893545e-07
2.902714274e-07
2.942453612e-07
3.05406303e-07
2.858592172e-07
3.639146832e-07
1.283051076e-07
2.053780728e-07
1.801167031e-06
5.583152474e-06
6.054240323e-06
2.253628222e-08
4.60640946e-08
6.396169045e-08
7.911258805e-08
9.255497567e-08
1.04789049e-07
1.161077604e-07
1.267015669e-07
1.367029553e-07
1.46208625e-07
1.552917134e-07
1.640089875e-07
1.724053647e-07
1.805169813e-07
1.883731774e-07
1.959979222e-07
2.034108877e-07
2.106282589e-07
2.176633428e-07
2.24527096e-07
2.312285551e-07
2.377752138e-07
2.441734252e-07
2.504287263e-07
2.56546066e-07
2.625300013e-07
2.683849032e-07
2.741137366e-07
2.797276041e-07
2.851737866e-07
2.908133206e-07
2.94640499e-07
3.06301409e-07
2.859624619e-07
3.627791964e-07
1.305320233e-07
3.499603993e-07
2.031562662e-06
5.700121589e-06
6.224036476e-06
2.253406479e-08
4.606250401e-08
6.39603535e-08
7.911207952e-08
9.255598796e-08
1.047925386e-07
1.161149738e-07
1.267140313e-07
1.367224651e-07
1.462372218e-07
1.553316639e-07
1.640627196e-07
1.72475456e-07
1.806060949e-07
1.884839852e-07
1.961330392e-07
2.035728096e-07
2.108192774e-07
2.178854605e-07
2.247819624e-07
2.315174026e-07
2.380988173e-07
2.445320954e-07
2.508224197e-07
2.56974571e-07
2.629930767e-07
2.688824154e-07
2.746453452e-07
2.802943917e-07
2.857669765e-07
2.914617394e-07
2.95260935e-07
3.067462224e-07
2.896536643e-07
3.49297561e-07
2.104482315e-07
4.986289682e-07
2.281219829e-06
5.807670841e-06
6.395415929e-06
2.253192686e-08
4.606153693e-08
6.395959519e-08
7.911218817e-08
9.255772171e-08
1.047969658e-07
1.161235051e-07
1.267284097e-07
1.367447546e-07
1.462697881e-07
1.553771476e-07
1.64123968e-07
1.725555237e-07
1.807081457e-07
1.886112177e-07
1.962886198e-07
2.037597983e-07
2.110405247e-07
2.181435169e-07
2.250789812e-07
2.318550386e-07
2.384781645e-07
2.449536817e-07
2.512863519e-07
2.574808432e-07
2.635418862e-07
2.694744619e-07
2.752815273e-07
2.809777324e-07
2.864900598e-07
2.922548219e-07
2.960247105e-07
3.077621923e-07
2.893476001e-07
3.546909905e-07
2.016504717e-07
5.384583929e-07
8.236256019e-07
5.921155662e-06
6.568657002e-06
2.252986709e-08
4.606123081e-08
6.395948697e-08
7.911301975e-08
9.256031771e-08
1.048025182e-07
1.161336104e-07
1.267450601e-07
1.367703277e-07
1.463070299e-07
1.554291381e-07
1.641940752e-07
1.726473641e-07
1.808254889e-07
1.88757904e-07
1.964684812e-07
2.039765587e-07
2.112976956e-07
2.184443083e-07
2.254261608e-07
2.322507897e-07
2.389239631e-07
2.454502679e-07
2.518339263e-07
2.580795266e-07
2.641923157e-07
2.701784166e-07
2.760417018e-07
2.818005149e-07
2.873674481e-07
2.932395071e-07
2.969374723e-07
3.090850469e-07
2.892726402e-07
3.649541115e-07
5.767589966e-08
5.530880826e-07
1.040464378e-06
6.034564113e-06
6.743564385e-06
2.252790628e-08
4.606162617e-08
6.396011029e-08
7.911469361e-08
9.25639402e-08
1.048094222e-07
1.161456049e-07
1.267644249e-07
1.367998071e-07
1.463498182e-07
1.554888303e-07
1.642746639e-07
1.727531474e-07
1.809609847e-07
1.889277536e-07
1.966773404e-07
2.042289713e-07
2.11597988e-07
2.187964757e-07
2.258336905e-07
2.327164844e-07
2.394497231e-07
2.460369936e-07
2.524817763e-07
2.587885862e-07
2.649635733e-07
2.71014949e-07
2.769488701e-07
2.827886675e-07
2.884372624e-07
2.944205081e-07
2.982262754e-07
3.099841917e-07
2.947764704e-07
3.473995942e-07
2.113308427e-07
5.922358097e-07
1.264763588e-06
6.143818845e-06
6.920001167e-06
2.252610843e-08
4.606292131e-08
6.396167314e-08
7.91174546e-08
9.256888839e-08
1.048180557e-07
1.161599794e-07
1.267871539e-07
1.368340667e-07
1.463993362e-07
1.555578226e-07
1.643678491e-07
1.728756448e-07
1.811182245e-07
1.891253627e-07
1.969210066e-07
2.045243047e-07
2.119503867e-07
2.1921094e-07
2.263146074e-07
2.332673775e-07
2.400728859e-07
2.467332844e-07
2.532509821e-07
2.596304016e-07
2.658790863e-07
2.720087427e-07
2.780298751e-07
2.839741916e-07
2.897366943e-07
2.958441266e-07
2.999900654e-07
3.10973766e-07
2.965341333e-07
3.592274115e-07
3.081601133e-07
6.31283842e-07
1.481595433e-06
6.248396397e-06
7.097807298e-06
2.252454361e-08
4.606533916e-08
6.396445685e-08
7.912165823e-08
9.257560422e-08
1.048289725e-07
1.161774391e-07
1.268141603e-07
1.36874304e-07
1.464571679e-07
1.556382285e-07
1.644764174e-07
1.730184914e-07
1.813018835e-07
1.893566474e-07
1.972068679e-07
2.04871699e-07
2.123661083e-07
2.197013727e-07
2.268854195e-07
2.339230691e-07
2.408161325e-07
2.475645146e-07
2.541689035e-07
2.606334922e-07
2.669678852e-07
2.731894144e-07
2.793160517e-07
2.853968726e-07
2.912860889e-07
2.977522204e-07
3.014020602e-07
3.147930875e-07
2.968521804e-07
3.55891427e-07
2.086995652e-07
6.756369826e-07
1.669268536e-06
6.347197647e-06
7.276901944e-06
2.252329845e-08
4.606912748e-08
6.396879827e-08
7.912775198e-08
9.258466367e-08
1.04842908e-07
1.161989264e-07
1.268466625e-07
1.369221083e-07
1.465253947e-07
1.557327872e-07
1.646039729e-07
1.731863926e-07
1.815180278e-07
1.896293096e-07
1.975445482e-07
2.052829975e-07
2.128595679e-07
2.202852337e-07
2.275671836e-07
2.347087162e-07
2.417089151e-07
2.485639856e-07
2.552715541e-07
2.618350032e-07
2.682667573e-07
2.745929419e-07
2.808455521e-07
2.870922475e-07
2.931976259e-07
2.998946539e-07
3.040838133e-07
3.169440987e-07
3.012716472e-07
3.565377421e-07
2.493614452e-07
7.392260358e-07
1.847908893e-06
6.439912071e-06
7.457622797e-06
2.252248402e-08
4.607458473e-08
6.397512937e-08
7.913632598e-08
9.259683733e-08
1.048608521e-07
1.162257086e-07
1.268862919e-07
1.369795992e-07
1.466067801e-07
1.558451013e-07
1.647552227e-07
1.733854561e-07
1.81774494e-07
1.899532736e-07
1.97946451e-07
2.057735279e-07
2.13449558e-07
2.20985441e-07
2.283877231e-07
2.356578396e-07
2.427908434e-07
2.497768786e-07
2.566080972e-07
2.632854862e-07
2.698247191e-07
2.762658657e-07
2.826631897e-07
2.891255412e-07
2.954758316e-07
3.026949636e-07
3.069385677e-07
3.209314642e-07
3.066970325e-07
3.527862037e-07
2.689622484e-07
8.269473236e-07
2.03820684e-06
6.524870809e-06
7.640125667e-06
2.252225329e-08
4.608211191e-08
6.398403038e-08
7.914817448e-08
9.26131639e-08
1.048841366e-07
1.162594834e-07
1.269352216e-07
1.370495827e-07
1.46704969e-07
1.559799265e-07
1.649363791e-07
1.736237225e-07
1.820815521e-07
1.9034149e-07
1.984287498e-07
2.063634375e-07
2.141612661e-07
2.218336708e-07
2.293867653e-07
2.368200674e-07
2.441219004e-07
2.512724949e-07
2.582547202e-07
2.650637215e-07
2.71718127e-07
2.782790045e-07
2.848408049e-07
2.915718415e-07
2.982446433e-07
3.062646755e-07
3.103248259e-07
3.271162338e-07
3.070425062e-07
3.80989029e-07
1.666614291e-07
7.532586667e-07
2.148087487e-06
6.599489952e-06
7.824147021e-06
2.252279813e-08
4.609219324e-08
6.399623827e-08
7.916432752e-08
9.263500435e-08
1.049145133e-07
1.16302485e-07
1.269963097e-07
1.371357405e-07
1.468247463e-07
1.561435478e-07
1.651556738e-07
1.739118814e-07
1.824529739e-07
1.908116738e-07
1.990142363e-07
2.070821747e-07
2.1503291e-07
2.228794409e-07
2.306270875e-07
2.382751518e-07
2.457982592e-07
2.531613195e-07
2.603331979e-07
2.672966593e-07
2.740712589e-07
2.807461771e-07
2.874932367e-07
2.945322307e-07
3.017959935e-07
3.104817337e-07
3.157582498e-07
3.327261107e-07
3.175460357e-07
3.851578106e-07
1.289334592e-07
7.796434066e-07
2.247609348e-06
6.667460499e-06
8.009427194e-06
2.25243653e-08
4.610544783e-08
6.401271003e-08
7.918613331e-08
9.266414602e-08
1.049542833e-07
1.163576475e-07
1.270733143e-07
1.372429229e-07
1.469724777e-07
1.563444382e-07
1.654243881e-07
1.742650051e-07
1.829091123e-07
1.913912655e-07
1.997394223e-07
2.079766898e-07
2.161217209e-07
2.241871943e-07
2.321762809e-07
2.400894236e-07
2.478812723e-07
2.554992062e-07
2.628915499e-07
2.700180788e-07
2.768890595e-07
2.836286585e-07
2.905284101e-07
2.979538326e-07
3.060920971e-07
3.156878079e-07
3.231459744e-07
3.422980979e-07
3.273228041e-07
3.77532279e-07
2.817773905e-07
1.004049586e-06
2.569877004e-06
6.730294342e-06
8.19619268e-06
2.252726723e-08
4.61226707e-08
6.403468681e-08
7.921535185e-08
9.270292923e-08
1.050064584e-07
1.164288201e-07
1.271712072e-07
1.373776688e-07
1.471570401e-07
1.565948794e-07
1.657597374e-07
1.74707496e-07
1.834842235e-07
1.92122608e-07
2.006484012e-07
2.090768454e-07
2.174167553e-07
2.256693025e-07
2.338582674e-07
2.419444963e-07
2.499340388e-07
2.57757469e-07
2.652909096e-07
2.724594254e-07
2.792468558e-07
2.858335887e-07
2.926433873e-07
3.006213153e-07
3.09422899e-07
3.21465654e-07
3.321639352e-07
3.5314556e-07
3.418523766e-07
4.008749081e-07
3.356599553e-07
3.302854557e-07
2.217719327e-06
6.778739774e-06
8.384754296e-06
2.253193402e-08
4.614494838e-08
6.406382949e-08
7.925431413e-08
9.275446036e-08
1.050750638e-07
1.16521271e-07
1.272970702e-07
1.375498957e-07
1.473927463e-07
1.569153636e-07
1.66189738e-07
1.752739998e-07
1.842087961e-07
1.929937253e-07
2.01629408e-07
2.10096532e-07
2.183889182e-07
2.265288034e-07
2.347570967e-07
2.427271534e-07
2.509162368e-07
2.591104988e-07
2.66787304e-07
2.738405903e-07
2.80297835e-07
2.86520071e-07
2.931174784e-07
3.021286893e-07
3.104322809e-07
3.269214436e-07
3.364239004e-07
3.634885222e-07
3.645961095e-07
4.293369364e-07
3.208448554e-07
1.004164778e-06
2.703315664e-06
6.812916086e-06
8.575481665e-06
2.253902856e-08
4.617379878e-08
6.410251516e-08
7.93063456e-08
9.282330258e-08
1.051663954e-07
1.16643854e-07
1.274635631e-07
1.377776167e-07
1.47703265e-07
1.573302925e-07
1.66721704e-07
1.759117266e-07
1.848766063e-07
1.935309706e-07
2.018545364e-07
2.099055343e-07
2.179109035e-07
2.263323466e-07
2.363175708e-07
2.462395188e-07
2.579313584e-07
2.69981273e-07
2.802850246e-07
2.886851747e-07
2.957413023e-07
3.027615835e-07
3.114886674e-07
3.239252427e-07
3.318944934e-07
3.479622219e-07
3.389621448e-07
3.697645863e-07