/*--------------------------------*- C++ -*----------------------------------*\
| =========                 |                                                 |
| \\      /  F ield         | OpenFOAM: The Open Source CFD Toolbox           |
|  \\    /   O peration     | Version:  v1912                                 |
|   \\  /    A nd           | Website:  www.openfoam.com                      |
|    \\/     M anipulation  |                                                 |
\*---------------------------------------------------------------------------*/
FoamFile
{
    version     2.0;
    format      ascii;
    class       volScalarField;
    location    "0.8";
    object      p;
}
// * * * * * * * * * * * * * * * * * * * * * * * * * * * * * * * * * * * * * //

dimensions      [1 -1 -2 0 0 0 0];


internalField   nonuniform List<scalar> 
4800
(
103162.9636
103162.9618
103162.9575
103162.951
103162.9422
103162.9313
103162.9184
103162.9035
103162.8868
103162.8684
103162.8484
103162.827
103162.8044
103162.7807
103162.7561
103162.7308
103162.7049
103162.6787
103162.6523
103162.6259
103162.5997
103162.5739
103162.5485
103162.5239
103162.5
103162.4772
103162.4553
103162.4347
103162.4153
103162.3973
103162.3807
103162.3654
103162.3516
103162.3392
103162.3281
103162.318
103162.3098
103162.2977
103162.3061
103162.2231
103148.2512
103148.2494
103148.2452
103148.2386
103148.2298
103148.2188
103148.2058
103148.1909
103148.1741
103148.1556
103148.1356
103148.1141
103148.0914
103148.0676
103148.0429
103148.0175
103147.9915
103147.9652
103147.9387
103147.9122
103147.8859
103147.86
103147.8346
103147.8098
103147.7859
103147.763
103147.7411
103147.7204
103147.701
103147.6829
103147.6662
103147.651
103147.6371
103147.6247
103147.6137
103147.6038
103147.5954
103147.5852
103147.5886
103147.5353
103133.5404
103133.5386
103133.5343
103133.5277
103133.5188
103133.5078
103133.4947
103133.4796
103133.4627
103133.4441
103133.4239
103133.4023
103133.3794
103133.3554
103133.3305
103133.3049
103133.2788
103133.2522
103133.2256
103133.1989
103133.1724
103133.1463
103133.1207
103133.0958
103133.0717
103133.0486
103133.0266
103133.0057
103132.9862
103132.968
103132.9513
103132.936
103132.9221
103132.9097
103132.8988
103132.8891
103132.8808
103132.8728
103132.8733
103132.7886
103118.8311
103118.8294
103118.8251
103118.8184
103118.8094
103118.7983
103118.785
103118.7698
103118.7527
103118.7338
103118.7134
103118.6915
103118.6684
103118.6441
103118.6189
103118.593
103118.5666
103118.5398
103118.5128
103118.4858
103118.459
103118.4326
103118.4067
103118.3816
103118.3572
103118.3339
103118.3117
103118.2907
103118.271
103118.2527
103118.2358
103118.2204
103118.2065
103118.1941
103118.1833
103118.1738
103118.1658
103118.1592
103118.1584
103118.0524
103104.1235
103104.1218
103104.1175
103104.1107
103104.1015
103104.0902
103104.0768
103104.0613
103104.0439
103104.0248
103104.004
103103.9818
103103.9583
103103.9337
103103.9082
103103.8819
103103.855
103103.8278
103103.8004
103103.773
103103.7458
103103.7191
103103.6928
103103.6673
103103.6426
103103.619
103103.5965
103103.5752
103103.5553
103103.5368
103103.5197
103103.5042
103103.4903
103103.4779
103103.4671
103103.4579
103103.4501
103103.4445
103103.4427
103103.32
103089.4175
103089.4159
103089.4115
103089.4045
103089.3953
103089.3837
103089.37
103089.3542
103089.3365
103089.317
103089.2959
103089.2732
103089.2493
103089.2242
103089.1982
103089.1714
103089.144
103089.1163
103089.0884
103089.0605
103089.0329
103089.0056
103088.9789
103088.9529
103088.9278
103088.9038
103088.8809
103088.8593
103088.8391
103088.8204
103088.8031
103088.7875
103088.7734
103088.761
103088.7503
103088.7412
103088.7335
103088.7284
103088.7257
103088.5899
103074.7133
103074.7116
103074.7071
103074.7
103074.6906
103074.6788
103074.6647
103074.6486
103074.6305
103074.6105
103074.5889
103074.5658
103074.5413
103074.5156
103074.489
103074.4616
103074.4336
103074.4053
103074.3768
103074.3483
103074.32
103074.2922
103074.2649
103074.2384
103074.2128
103074.1883
103074.165
103074.143
103074.1225
103074.1034
103074.0859
103074.0701
103074.0559
103074.0435
103074.0327
103074.0237
103074.016
103074.0112
103074.0072
103073.8615
103060.0107
103060.0091
103060.0045
103059.9972
103059.9875
103059.9754
103059.961
103059.9444
103059.9259
103059.9054
103059.8832
103059.8594
103059.8343
103059.808
103059.7807
103059.7526
103059.7239
103059.6948
103059.6656
103059.6364
103059.6074
103059.5789
103059.551
103059.5238
103059.4977
103059.4726
103059.4488
103059.4263
103059.4053
103059.3859
103059.3681
103059.3521
103059.3377
103059.3252
103059.3144
103059.3055
103059.2979
103059.2935
103059.2886
103059.1322
103045.3099
103045.3083
103045.3036
103045.2962
103045.2861
103045.2737
103045.2588
103045.2418
103045.2227
103045.2016
103045.1787
103045.1543
103045.1284
103045.1013
103045.0732
103045.0443
103045.0148
103044.9849
103044.9548
103044.9248
103044.895
103044.8657
103044.837
103044.8091
103044.7822
103044.7565
103044.7321
103044.7091
103044.6876
103044.6678
103044.6497
103044.6334
103044.6188
103044.6061
103044.5953
103044.5864
103044.579
103044.5751
103044.5702
103044.402
103030.611
103030.6094
103030.6045
103030.5968
103030.5865
103030.5736
103030.5583
103030.5407
103030.5209
103030.4992
103030.4756
103030.4503
103030.4236
103030.3956
103030.3666
103030.3368
103030.3063
103030.2754
103030.2444
103030.2135
103030.1828
103030.1525
103030.123
103030.0943
103030.0666
103030.0402
103030.0151
103029.9915
103029.9694
103029.9491
103029.9306
103029.914
103029.8992
103029.8864
103029.8754
103029.8666
103029.8593
103029.8557
103029.851
103029.6719
103015.9139
103015.9123
103015.9073
103015.8994
103015.8887
103015.8753
103015.8595
103015.8412
103015.8208
103015.7982
103015.7738
103015.7476
103015.7199
103015.691
103015.6609
103015.63
103015.5985
103015.5666
103015.5345
103015.5024
103015.4707
103015.4395
103015.4089
103015.3793
103015.3508
103015.3235
103015.2976
103015.2733
103015.2507
103015.2298
103015.2109
103015.1938
103015.1788
103015.1657
103015.1547
103015.1459
103015.1386
103015.1352
103015.1308
103014.9417
103001.2188
103001.2172
103001.2121
103001.2038
103001.1927
103001.1788
103001.1624
103001.1434
103001.1221
103001.0987
103001.0733
103001.0462
103001.0174
103000.9874
103000.9562
103000.9241
103000.8914
103000.8582
103000.825
103000.7917
103000.7588
103000.7265
103000.6948
103000.6642
103000.6346
103000.6064
103000.5797
103000.5546
103000.5313
103000.5099
103000.4904
103000.4729
103000.4575
103000.4443
103000.4332
103000.4242
103000.417
103000.4137
103000.4096
103000.2112
102986.5257
102986.5242
102986.5188
102986.5102
102986.4986
102986.4842
102986.4671
102986.4473
102986.4252
102986.4008
102986.3743
102986.3461
102986.3161
102986.2848
102986.2524
102986.219
102986.1849
102986.1505
102986.1159
102986.0814
102986.0472
102986.0135
102985.9807
102985.9489
102985.9183
102985.889
102985.8614
102985.8354
102985.8114
102985.7892
102985.7692
102985.7512
102985.7355
102985.722
102985.7107
102985.7017
102985.6945
102985.6912
102985.6874
102985.4805
102971.8348
102971.8333
102971.8276
102971.8187
102971.8066
102971.7916
102971.7736
102971.753
102971.7299
102971.7045
102971.6768
102971.6473
102971.6161
102971.5834
102971.5496
102971.5148
102971.4793
102971.4433
102971.4073
102971.3713
102971.3357
102971.3007
102971.2665
102971.2334
102971.2016
102971.1712
102971.1425
102971.1157
102971.0907
102971.0679
102971.0472
102971.0287
102971.0126
102970.9987
102970.9872
102970.9782
102970.971
102970.9677
102970.9639
102970.7496
102957.1461
102957.1445
102957.1387
102957.1293
102957.1167
102957.1009
102957.0822
102957.0606
102957.0364
102957.0098
102956.9809
102956.95
102956.9174
102956.8832
102956.8478
102956.8114
102956.7743
102956.7368
102956.6991
102956.6615
102956.6244
102956.5878
102956.5522
102956.5177
102956.4846
102956.453
102956.4232
102956.3953
102956.3694
102956.3457
102956.3243
102956.3053
102956.2887
102956.2745
102956.2629
102956.2537
102956.2465
102956.2433
102956.239
102956.0185
102942.4597
102942.4581
102942.452
102942.4422
102942.429
102942.4125
102942.3928
102942.3702
102942.3448
102942.3169
102942.2866
102942.2542
102942.22
102942.1842
102942.1471
102942.109
102942.0701
102942.0308
102941.9914
102941.9521
102941.9132
102941.875
102941.8378
102941.8018
102941.7672
102941.7343
102941.7033
102941.6742
102941.6473
102941.6228
102941.6006
102941.581
102941.5639
102941.5494
102941.5374
102941.5281
102941.521
102941.5179
102941.5127
102941.2869
102927.7758
102927.7742
102927.7678
102927.7575
102927.7436
102927.7262
102927.7056
102927.6818
102927.6552
102927.6258
102927.594
102927.56
102927.5241
102927.4865
102927.4475
102927.4075
102927.3668
102927.3256
102927.2842
102927.243
102927.2023
102927.1623
102927.1233
102927.0857
102927.0495
102927.0151
102926.9827
102926.9525
102926.9245
102926.899
102926.876
102926.8557
102926.838
102926.8231
102926.8109
102926.8015
102926.7945
102926.7914
102926.785
102926.5546
102913.0945
102913.0928
102913.0861
102913.0753
102913.0606
102913.0424
102913.0206
102912.9956
102912.9676
102912.9367
102912.9032
102912.8674
102912.8296
102912.7901
102912.7491
102912.7071
102912.6642
102912.6209
102912.5775
102912.5342
102912.4915
102912.4495
102912.4087
102912.3692
102912.3314
102912.2954
102912.2616
102912.23
102912.2008
102912.1743
102912.1504
102912.1293
102912.1111
102912.0958
102912.0833
102912.0738
102912.0669
102912.064
102912.0559
102911.8216
102898.4158
102898.4142
102898.4071
102898.3957
102898.3803
102898.361
102898.3381
102898.3117
102898.2821
102898.2496
102898.2143
102898.1766
102898.1367
102898.0951
102898.0519
102898.0076
102897.9625
102897.9169
102897.8712
102897.8258
102897.7808
102897.7368
102897.6939
102897.6525
102897.6128
102897.5751
102897.5397
102897.5067
102897.4762
102897.4486
102897.4237
102897.4019
102897.383
102897.3672
102897.3544
102897.3447
102897.3378
102897.335
102897.3257
102897.0878
102883.7401
102883.7384
102883.7309
102883.7189
102883.7026
102883.6822
102883.658
102883.6302
102883.599
102883.5646
102883.5273
102883.4875
102883.4455
102883.4015
102883.356
102883.3093
102883.2617
102883.2137
102883.1655
102883.1176
102883.0703
102883.0239
102882.9789
102882.9353
102882.8937
102882.8542
102882.817
102882.7825
102882.7507
102882.7218
102882.696
102882.6733
102882.6537
102882.6374
102882.6243
102882.6144
102882.6074
102882.6044
102882.5944
102882.353
102869.0673
102869.0656
102869.0578
102869.045
102869.0278
102869.0063
102868.9807
102868.9512
102868.9182
102868.8818
102868.8424
102868.8004
102868.7559
102868.7095
102868.6614
102868.612
102868.5618
102868.5111
102868.4603
102868.4098
102868.3599
102868.3111
102868.2636
102868.2178
102868.174
102868.1325
102868.0936
102868.0574
102868.0241
102867.9939
102867.967
102867.9434
102867.9231
102867.9063
102867.8928
102867.8827
102867.8757
102867.8725
102867.8613
102867.6167
102854.3978
102854.3961
102854.3878
102854.3743
102854.356
102854.3332
102854.3061
102854.2749
102854.2399
102854.2014
102854.1597
102854.1152
102854.0682
102854.019
102853.9681
102853.916
102853.8629
102853.8093
102853.7556
102853.7022
102853.6496
102853.5981
102853.5481
102853.4998
102853.4538
102853.4101
102853.3692
102853.3312
102853.2964
102853.2648
102853.2367
102853.2121
102853.1911
102853.1737
102853.1598
102853.1495
102853.1425
102853.1391
102853.1264
102852.879
102839.7318
102839.7299
102839.7211
102839.7068
102839.6875
102839.6633
102839.6345
102839.6015
102839.5644
102839.5235
102839.4793
102839.4321
102839.3823
102839.3302
102839.2763
102839.2211
102839.1649
102839.1082
102839.0514
102838.995
102838.9394
102838.885
102838.8322
102838.7813
102838.7328
102838.6869
102838.6438
102838.604
102838.5674
102838.5344
102838.5051
102838.4794
102838.4576
102838.4396
102838.4254
102838.4149
102838.4078
102838.4044
102838.3896
102838.1397
102825.0693
102825.0674
102825.0581
102825.0429
102825.0224
102824.9967
102824.9661
102824.931
102824.8916
102824.8483
102824.8014
102824.7513
102824.6984
102824.6432
102824.586
102824.5274
102824.4679
102824.4078
102824.3477
102824.288
102824.2292
102824.1717
102824.1159
102824.0622
102824.011
102823.9627
102823.9174
102823.8755
102823.8371
102823.8026
102823.7719
102823.7452
102823.7226
102823.704
102823.6893
102823.6787
102823.6717
102823.6682
102823.6511
102823.3992
102810.4107
102810.4088
102810.3989
102810.3827
102810.3609
102810.3336
102810.3011
102810.2638
102810.2219
102810.1758
102810.126
102810.0728
102810.0166
102809.9579
102809.8973
102809.8351
102809.7719
102809.7082
102809.6445
102809.5813
102809.519
102809.4581
102809.3992
102809.3425
102809.2884
102809.2374
102809.1897
102809.1457
102809.1054
102809.0692
102809.0371
102809.0093
102808.9857
102808.9665
102808.9515
102808.9407
102808.934
102808.9308
102808.9104
102808.6575
102795.7563
102795.7542
102795.7437
102795.7265
102795.7033
102795.6742
102795.6396
102795.5999
102795.5553
102795.5064
102795.4533
102795.3967
102795.337
102795.2746
102795.2102
102795.1441
102795.077
102795.0094
102794.9418
102794.8747
102794.8087
102794.7443
102794.6819
102794.6219
102794.5648
102794.511
102794.4607
102794.4144
102794.3721
102794.3341
102794.3005
102794.2715
102794.2471
102794.2272
102794.2118
102794.2008
102794.1941
102794.1909
102794.169
102793.9146
102781.1062
102781.1041
102781.0929
102781.0746
102781.0498
102781.0188
102780.982
102780.9397
102780.8922
102780.84
102780.7835
102780.7233
102780.6597
102780.5934
102780.5248
102780.4545
102780.3832
102780.3114
102780.2396
102780.1684
102780.0984
102780.03
102779.9639
102779.9005
102779.8401
102779.7833
102779.7303
102779.6815
102779.637
102779.5972
102779.5621
102779.5318
102779.5064
102779.4859
102779.47
102779.4588
102779.4519
102779.4485
102779.4264
102779.1703
102766.4609
102766.4587
102766.4467
102766.4272
102766.4007
102766.3677
102766.3284
102766.2833
102766.2326
102766.177
102766.1168
102766.0526
102765.9848
102765.9142
102765.8412
102765.7664
102765.6905
102765.6141
102765.5378
102765.4621
102765.3878
102765.3153
102765.2452
102765.178
102765.1142
102765.0541
102764.9982
102764.9468
102764.9
102764.8582
102764.8215
102764.7899
102764.7635
102764.7423
102764.7261
102764.7148
102764.7079
102764.7046
102764.6809
102764.4236
102751.8206
102751.8183
102751.8055
102751.7847
102751.7564
102751.7211
102751.6792
102751.631
102751.5769
102751.5176
102751.4533
102751.3848
102751.3126
102751.2372
102751.1594
102751.0797
102750.9989
102750.9176
102750.8364
102750.756
102750.677
102750.6
102750.5257
102750.4545
102750.3869
102750.3234
102750.2643
102750.2101
102750.1609
102750.117
102750.0785
102750.0456
102750.0183
102749.9964
102749.9799
102749.9685
102749.9619
102749.9587
102749.9327
102749.6745
102737.1858
102737.1833
102737.1696
102737.1473
102737.1171
102737.0794
102737.0346
102736.9831
102736.9253
102736.8619
102736.7933
102736.7201
102736.643
102736.5626
102736.4796
102736.3946
102736.3085
102736.2218
102736.1353
102736.0498
102735.9658
102735.884
102735.8051
102735.7296
102735.658
102735.5908
102735.5284
102735.4712
102735.4194
102735.3733
102735.3331
102735.2987
102735.2704
102735.2479
102735.2311
102735.2198
102735.2134
102735.2104
102735.1818
102734.9229
102722.5568
102722.5541
102722.5395
102722.5156
102722.4833
102722.4429
102722.3949
102722.3398
102722.2781
102722.2103
102722.1369
102722.0587
102721.9763
102721.8904
102721.8018
102721.7111
102721.6192
102721.5268
102721.4346
102721.3435
102721.2541
102721.1672
102721.0833
102721.0032
102720.9273
102720.8562
102720.7903
102720.7299
102720.6753
102720.6269
102720.5847
102720.549
102720.5196
102720.4965
102720.4796
102720.4685
102720.4625
102720.4597
102720.4281
102720.1689
102707.934
102707.9311
102707.9154
102707.8899
102707.8552
102707.812
102707.7606
102707.7016
102707.6355
102707.5629
102707.4844
102707.4008
102707.3127
102707.2208
102707.1261
102707.0292
102706.9311
102706.8324
102706.7342
102706.637
102706.5419
102706.4493
102706.3602
102706.2751
102706.1947
102706.1193
102706.0496
102705.9858
102705.9284
102705.8775
102705.8333
102705.796
102705.7656
102705.742
102705.7249
102705.7142
102705.7091
102705.7068
102705.6716
102705.4129
102693.3181
102693.3149
102693.2981
102693.2706
102693.2335
102693.1871
102693.1321
102693.0688
102692.998
102692.9202
102692.8361
102692.7466
102692.6522
102692.5539
102692.4526
102692.349
102692.2441
102692.1388
102692.0339
102691.9303
102691.8288
102691.7303
102691.6355
102691.5451
102691.4597
102691.3799
102691.3061
102691.2388
102691.1782
102691.1246
102691.0784
102691.0395
102691.008
102690.984
102690.9669
102690.9567
102690.9528
102690.9519
102690.9116
102690.6547
102678.7094
102678.706
102678.6878
102678.6584
102678.6185
102678.5687
102678.5096
102678.4418
102678.3658
102678.2824
102678.1923
102678.0962
102677.9952
102677.8899
102677.7814
102677.6705
102677.5583
102677.4457
102677.3336
102677.2231
102677.1148
102677.0099
102676.909
102676.8129
102676.7222
102676.6376
102676.5595
102676.4883
102676.4244
102676.368
102676.3195
102676.2789
102676.2465
102676.2219
102676.2049
102676.1952
102676.1921
102676.1927
102676.1504
102675.8944
102664.1086
102664.1049
102664.0853
102664.0537
102664.0108
102663.9573
102663.8939
102663.821
102663.7394
102663.6499
102663.5532
102663.4501
102663.3417
102663.2289
102663.1126
102662.9938
102662.8737
102662.7532
102662.6334
102662.5152
102662.3997
102662.2878
102662.1803
102662.0781
102661.9819
102661.8921
102661.8094
102661.7341
102661.6666
102661.6072
102661.5562
102661.5139
102661.4803
102661.4554
102661.4386
102661.4295
102661.4268
102661.4291
102661.3873
102661.1309
102649.5164
102649.5123
102649.4912
102649.4571
102649.411
102649.3535
102649.2853
102649.2069
102649.1192
102649.023
102648.9191
102648.8085
102648.6921
102648.571
102648.4462
102648.3189
102648.1902
102648.0611
102647.9329
102647.8066
102647.6832
102647.5638
102647.4493
102647.3405
102647.2382
102647.143
102647.0554
102646.9757
102646.9043
102646.8416
102646.788
102646.7437
102646.7091
102646.6839
102646.6675
102646.6591
102646.6575
102646.6624
102646.619
102646.3633
102634.9335
102634.9289
102634.9061
102634.8694
102634.8197
102634.7578
102634.6844
102634.6001
102634.5058
102634.4023
102634.2905
102634.1716
102634.0465
102633.9164
102633.7824
102633.6458
102633.5077
102633.3694
102633.2321
102633.0969
102632.965
102632.8375
102632.7154
102632.5996
102632.4909
102632.3899
102632.2971
102632.2127
102632.1371
102632.0707
102632.0141
102631.9677
102631.9319
102631.9066
102631.8907
102631.8836
102631.8835
102631.8911
102631.8458
102631.5909
102620.3608
102620.3556
102620.331
102620.2913
102620.2378
102620.1711
102620.0919
102620.0011
102619.8995
102619.7881
102619.6678
102619.5398
102619.4052
102619.2653
102619.1213
102618.9745
102618.8263
102618.6779
102618.5307
102618.3859
102618.2448
102618.1085
102617.9783
102617.855
102617.7395
102617.6324
102617.5339
102617.4445
102617.3643
102617.2938
102617.2338
102617.1849
102617.1479
102617.1225
102617.1073
102617.1019
102617.1042
102617.1146
102617.0674
102616.8134
102605.7991
102605.7932
102605.7665
102605.7237
102605.6659
102605.5939
102605.5086
102605.4107
102605.3011
102605.181
102605.0514
102604.9134
102604.7685
102604.6179
102604.463
102604.3051
102604.1458
102603.9865
102603.8285
102603.6732
102603.5221
102603.3765
102603.2374
102603.1062
102602.9835
102602.8698
102602.7655
102602.6706
102602.5853
102602.5102
102602.4461
102602.3943
102602.3558
102602.3302
102602.3162
102602.3132
102602.3184
102602.3319
102602.2832
102602.0303
102591.2495
102591.2427
102591.2138
102591.1675
102591.1051
102591.0273
102590.9351
102590.8294
102590.7112
102590.5816
102590.4417
102590.293
102590.1367
102589.9744
102589.8075
102589.6376
102589.4662
102589.2949
102589.1252
102588.9586
102588.7966
102588.6407
102588.4923
102588.3525
102588.2222
102588.1019
102587.9914
102587.8907
102587.7997
102587.7189
102587.6499
102587.5944
102587.554
102587.5283
102587.5158
102587.5162
102587.5252
102587.5425
102587.4924
102587.241
102576.713
102576.7053
102576.6739
102576.6238
102576.5562
102576.4722
102576.3725
102576.2583
102576.1305
102575.9904
102575.8394
102575.6788
102575.5101
102575.3349
102575.155
102574.9718
102574.7873
102574.6029
102574.4204
102574.2414
102574.0676
102573.9006
102573.742
102573.5933
102573.4551
102573.3279
102573.2112
102573.1042
102573.0066
102572.9192
102572.8438
102572.7833
102572.7404
102572.7143
102572.7043
102572.7091
102572.7233
102572.7453
102572.6946
102572.4452
102562.1911
102562.1822
102562.148
102562.0937
102562.0205
102561.9295
102561.8217
102561.6981
102561.5599
102561.4084
102561.245
102561.0714
102560.889
102560.6998
102560.5055
102560.3079
102560.1089
102559.9102
102559.7137
102559.5211
102559.3344
102559.1553
102558.9858
102558.8276
102558.6815
102558.5476
102558.4247
102558.3111
102558.2058
102558.1098
102558.026
102557.9586
102557.9121
102557.8854
102557.8788
102557.8898
102557.9113
102557.9394
102557.8894
102557.6424
102547.685
102547.6748
102547.6375
102547.5785
102547.4992
102547.4006
102547.2838
102547.1499
102547.0002
102546.8362
102546.6593
102546.4713
102546.2739
102546.0692
102545.8591
102545.6457
102545.4308
102545.2165
102545.0046
102544.7971
102544.5961
102544.4038
102544.2227
102544.0547
102543.9008
102543.7606
102543.6318
102543.5114
102543.397
102543.2899
102543.1943
102543.1169
102543.0648
102543.0374
102543.0355
102543.0556
102543.0873
102543.1242
102543.0756
102542.8325
102533.1965
102533.1846
102533.1439
102533.0798
102532.9937
102532.8868
102532.7601
102532.6149
102532.4526
102532.2747
102532.0829
102531.8791
102531.6652
102531.4434
102531.216
102530.9851
102530.7529
102530.5215
102530.2928
102530.0689
102529.852
102529.645
102529.4511
102529.273
102529.1119
102528.9667
102528.8331
102528.7056
102528.58
102528.4579
102528.3457
102528.2533
102528.1924
102528.1641
102528.1691
102528.2022
102528.2488
102528.2982
102528.2536
102528.0153
102518.7275
102518.7136
102518.669
102518.5991
102518.5056
102518.3895
102518.2519
102518.0943
102517.918
102517.7249
102517.5167
102517.2954
102517.0633
102516.8227
102516.5762
102516.3263
102516.0752
102515.825
102515.5777
102515.3354
102515.1006
102514.877
102514.6692
102514.4813
102514.3145
102514.1666
102514.0298
102513.895
102513.7549
102513.6118
102513.4748
102513.3598
102513.2853
102513.256
102513.2717
102513.3246
102513.3942
102513.4613
102513.4231
102513.1916
102504.2799
102504.2635
102504.2145
102504.1384
102504.0366
102503.9103
102503.7608
102503.5895
102503.398
102503.188
102502.9617
102502.7211
102502.4689
102502.2076
102501.9402
102501.6695
102501.3978
102501.1272
102500.8592
102500.5956
102500.3397
102500.0966
102499.873
102499.6756
102499.5067
102499.3614
102499.2259
102499.0843
102498.9246
102498.7504
102498.5759
102498.4256
102498.3284
102498.2981
102498.3307
102498.4152
102498.5196
102498.6123
102498.5841
102498.3625
102489.8561
102489.8368
102489.7828
102489.6996
102489.5887
102489.4512
102489.2886
102489.1022
102488.8939
102488.6654
102488.419
102488.1572
102487.8828
102487.5988
102487.3085
102487.0147
102486.7202
102486.4269
102486.1358
102485.8485
102485.5684
102485.3027
102485.062
102484.8572
102484.6922
102484.5583
102484.4318
102484.2856
102484.1007
102483.8807
102483.6471
102483.4388
102483.3032
102483.27
102483.3288
102483.4648
102483.6222
102483.7515
102483.7401
102483.5314
102475.4588
102475.4359
102475.3762
102475.2851
102475.164
102475.0142
102474.8371
102474.6343
102474.4074
102474.1587
102473.8902
102473.6048
102473.3055
102472.9959
102472.6799
102472.3613
102472.0434
102471.7276
102471.4139
102471.1019
102470.7952
102470.5035
102470.244
102470.0336
102469.8793
102469.7672
102469.6595
102469.5121
102469.2985
102469.0162
102468.6969
102468.3983
102468.1949
102468.1472
102468.246
102468.464
102468.7036
102468.8841
102468.8927
102468.7049
102461.0913
102461.0639
102460.9974
102460.8972
102460.7648
102460.6015
102460.4086
102460.1877
102459.9407
102459.6694
102459.3762
102459.064
102458.7366
102458.399
102458.0568
102457.7154
102457.3781
102457.0445
102456.711
102456.3742
102456.0366
102455.7121
102455.4265
102455.2069
102455.0696
102454.9939
102454.9189
102454.7796
102454.5368
102454.179
102453.7483
102453.3242
102453.007
102452.9104
102453.0633
102453.4081
102453.769
102454.0142
102454.0477
102453.8966
102446.7574
102446.7241
102446.6494
102446.5387
102446.3938
102446.2155
102446.0052
102445.7645
102445.4951
102445.1989
102444.8782
102444.537
102444.1808
102443.8164
102443.4514
102443.0913
102442.7389
102442.3915
102442.0416
102441.6804
102441.3083
102440.9436
102440.6236
102440.389
102440.2723
102440.2437
102440.2126
102440.0893
102439.8191
102439.3878
102438.8474
102438.2817
102437.8003
102437.5918
102437.7972
102438.3194
102438.8349
102439.1555
102439.2111
102439.1367
102432.4615
102432.4204
102432.3353
102432.2123
102432.053
102431.858
102431.6288
102431.3667
102431.0733
102430.751
102430.4027
102430.0338
102429.6505
102429.2611
102428.8743
102428.4966
102428.1316
102427.775
102427.4134
102427.0314
102426.626
102426.221
102425.8652
102425.6124
102425.5171
102425.5352
102425.5403
102425.4228
102425.1238
102424.629
102424.003
102423.3223
102422.684
102422.3063
102422.5307
102423.2684
102423.9414
102424.3306
102424.3931
102424.4906
102418.2109
102418.1587
102418.0595
102417.9211
102417.7452
102417.5322
102417.2832
102416.9993
102416.6828
102416.3361
102415.9622
102415.566
102415.1544
102414.7375
102414.3276
102413.9332
102413.56
102413.203
102412.8397
102412.4461
102412.0166
102411.5825
102411.2027
102410.9374
102410.8531
102410.8869
102410.8945
102410.7743
102410.4477
102409.8923
102409.1925
102408.4266
102407.7054
102407.1968
102407.4569
102408.3733
102409.1587
102409.5742
102409.6068
102410.0718
102404.012
102403.9449
102403.8275
102403.6702
102403.4757
102403.244
102402.9757
102402.6715
102402.3331
102401.9625
102401.5622
102401.138
102400.6973
102400.2524
102399.8208
102399.4135
102399.0291
102398.6616
102398.2921
102397.8954
102397.4647
102397.0311
102396.6505
102396.3872
102396.2985
102396.3092
102396.2951
102396.1596
102395.7905
102395.1658
102394.3752
102393.5675
102392.8512
102392.4368
102392.8176
102393.7627
102394.5492
102394.9322
102394.9284
102396.0669
102389.8792
102389.7886
102389.6453
102389.4642
102389.2491
102388.9987
102388.7119
102388.3878
102388.0278
102387.6343
102387.2085
102386.7565
102386.2884
102385.8134
102385.3473
102384.9131
102384.518
102384.147
102383.7748
102383.3784
102382.9562
102382.5352
102382.1724
102381.9318
102381.8376
102381.8147
102381.7634
102381.5797
102381.1442
102380.4253
102379.4998
102378.6104
102378.0013
102377.9125
102378.5776
102379.5046
102380.1032
102380.4131
102380.5665
102382.6897
102375.829
102375.7
102375.5167
102375.3034
102375.0657
102374.798
102374.4954
102374.1533
102373.7729
102373.3588
102372.9111
102372.424
102371.9136
102371.4045
102370.9172
102370.4685
102370.0627
102369.682
102369.2994
102368.8987
102368.4839
102368.0786
102367.7454
102367.544
102367.4537
102367.4094
102367.3161
102367.0714
102366.5548
102365.6995
102364.5728
102363.4387
102362.8808
102363.1756
102364.2907
102365.4264
102365.8053
102366.0439
102366.8388
102370.1679
102361.8905
102361.6996
102361.4579
102361.2059
102360.9492
102360.6701
102360.358
102360.0052
102359.6065
102359.1609
102358.6751
102358.1569
102357.618
102357.0838
102356.579
102356.1202
102355.704
102355.306
102354.9036
102354.4916
102354.0768
102353.6851
102353.3818
102353.2223
102353.1521
102353.1216
102353.0285
102352.7696
102352.1971
102351.1799
102349.7546
102348.2614
102347.3998
102347.9844
102349.6308
102351.2375
102351.7064
102352.0422
102354.1733
102358.7154
102348.1945
102347.9312
102347.6345
102347.3574
102347.0909
102346.7934
102346.4486
102346.0577
102345.6233
102345.1442
102344.6199
102344.0608
102343.4862
102342.927
102342.4087
102341.9425
102341.5156
102341.0981
102340.6731
102340.2442
102339.8212
102339.4363
102339.1535
102339.0226
102339.0088
102339.0675
102339.0927
102338.9534
102338.4686
102337.4252
102335.7435
102333.8005
102332.4156
102332.7245
102334.8016
102337.2254
102338.3416
102339.1542
102342.9867
102348.418
102335.2622
102334.9794
102334.6576
102334.3351
102333.9783
102333.5723
102333.1227
102332.6391
102332.1218
102331.5651
102330.9717
102330.3532
102329.7296
102329.1376
102328.6016
102328.1261
102327.6935
102327.27
102326.8378
102326.3999
102325.9693
102325.588
102325.3197
102325.2065
102325.2872
102325.5193
102325.8229
102326.028
102325.9336
102325.2518
102323.7871
102321.7709
102319.9885
102319.344
102320.9561
102323.9378
102326.5358
102328.4999
102333.4293
102339.1017
102324.2371
102323.9485
102323.5488
102323.0497
102322.4503
102321.7961
102321.1227
102320.4573
102319.7995
102319.1321
102318.4571
102317.7804
102317.1214
102316.5082
102315.9646
102315.4977
102315.0939
102314.7203
102314.3491
102313.9692
102313.5881
102313.2478
102312.9994
102312.8968
102313.0366
102313.3837
102313.9277
102314.5599
102315.0846
102315.2002
102314.5598
102313.2477
102311.6552
102310.5116
102310.6113
102312.7076
102316.2177
102319.73
102325.0321
102330.233
102315.9533
102315.6153
102315.093
102314.3953
102313.5925
102312.7554
102311.9369
102311.1692
102310.4557
102309.7817
102309.1377
102308.5235
102307.9553
102307.4452
102307.007
102306.645
102306.3509
102306.1018
102305.8717
102305.6432
102305.4123
102305.1948
102305.014
102304.9063
102304.9453
102305.1509
102305.5419
102306.1322
102306.8295
102307.4515
102307.6962
102307.4332
102306.67
102305.8426
102305.169
102305.68
102307.8786
102311.7549
102316.9276
102321.0968
102310.0984
102309.7696
102309.2536
102308.5948
102307.8745
102307.1541
102306.4752
102305.8545
102305.2918
102304.7797
102304.3066
102303.8778
102303.5081
102303.2034
102302.9601
102302.7695
102302.621
102302.5024
102302.4022
102302.3121
102302.2261
102302.1412
102302.0588
102301.9882
102301.9428
102301.9652
102302.0605
102302.2541
102302.5496
102302.9108
102303.2978
102303.5287
102303.4989
102303.2472
102302.8713
102302.6059
102303.1408
102305.2287
102308.7545
102311.4636
102306.0882
102305.8706
102305.5111
102305.0799
102304.6334
102304.2041
102303.8082
102303.4482
102303.1165