/*--------------------------------*- C++ -*----------------------------------*\
| =========                 |                                                 |
| \\      /  F ield         | OpenFOAM: The Open Source CFD Toolbox           |
|  \\    /   O peration     | Version:  v1912                                 |
|   \\  /    A nd           | Website:  www.openfoam.com                      |
|    \\/     M anipulation  |                                                 |
\*---------------------------------------------------------------------------*/
FoamFile
{
    version     2.0;
    format      ascii;
    class       surfaceScalarField;
    location    "0.8";
    object      phi;
}
// * * * * * * * * * * * * * * * * * * * * * * * * * * * * * * * * * * * * * //

dimensions      [0 3 -1 0 0 0 0];
oriented        oriented;


internalField   nonuniform List<scalar> 
9440
(
2.438709899e-10
-2.438709899e-10
9.869462137e-10
-7.430753067e-10
2.225330493e-09
-1.23838445e-09
3.951744751e-09
-1.72641451e-09
6.15661424e-09
-2.204869822e-09
8.827725117e-09
-2.67111129e-09
1.195032607e-08
-3.122601451e-09
1.550716927e-08
-3.556843771e-09
1.947861269e-08
-3.971444077e-09
2.384275237e-08
-4.364140406e-09
2.857556588e-08
-4.732814315e-09
3.365109714e-08
-5.075532138e-09
3.904168081e-08
-5.390584621e-09
4.471820961e-08
-5.676529812e-09
5.065044844e-08
-5.932239901e-09
5.68073991e-08
-6.15695179e-09
6.315771896e-08
-6.350321053e-09
6.967019679e-08
-6.512479064e-09
7.631428859e-08
-6.644093095e-09
8.306071678e-08
-6.74642953e-09
8.988213619e-08
-6.821420808e-09
9.675387219e-08
-6.871737445e-09
1.036547385e-07
-6.90086776e-09
1.105679474e-07
-6.913210475e-09
1.17482148e-07
-6.914202224e-09
1.243926181e-07
-6.910471811e-09
1.313025975e-07
-6.909981063e-09
1.382249656e-07
-6.922369992e-09
1.451843935e-07
-6.959429792e-09
1.522201727e-07
-7.035781138e-09
1.593901102e-07
-7.169939532e-09
1.667772554e-07
-7.387147405e-09
1.745089209e-07
-7.731667764e-09
1.827379319e-07
-8.229013357e-09
1.919510786e-07
-9.213149198e-09
2.015390009e-07
-9.587924773e-09
2.174919879e-07
-1.595298968e-08
2.125033088e-07
4.988676392e-09
3.633029901e-07
-1.508131276e-07
3.732693081e-07
2.604788292e-10
-5.04349902e-10
1.042616253e-09
-1.525212967e-09
2.34425898e-09
-2.540027562e-09
4.158689412e-09
-3.540845473e-09
6.476370265e-09
-4.522551351e-09
9.285134861e-09
-5.479876707e-09
1.257023501e-08
-6.407702567e-09
1.6314396e-08
-7.301005862e-09
2.049799945e-08
-8.155048765e-09
2.509914349e-08
-8.965285821e-09
3.009379844e-08
-9.727470766e-09
3.545599252e-08
-1.043772784e-08
4.115803538e-08
-1.109262923e-08
4.717078487e-08
-1.168928116e-08
5.346396138e-08
-1.222541837e-08
6.000651378e-08
-1.269950625e-08
6.676704056e-08
-1.311085e-08
7.371426955e-08
-1.345971031e-08
8.081759919e-08
-1.374742509e-08
8.80477047e-08
-1.397653748e-08
9.537721252e-08
-1.415093116e-08
1.027814483e-07
-1.427597588e-08
1.102392656e-07
-1.435868774e-08
1.177339674e-07
-1.440791513e-08
1.252543438e-07
-1.443458158e-08
1.327958622e-07
-1.445199331e-08
1.403620191e-07
-1.447614111e-08
1.479659797e-07
-1.452633396e-08
1.556326436e-07
-1.462609726e-08
1.63401071e-07
-1.480421218e-08
1.713275297e-07
-1.509640202e-08
1.794922799e-07
-1.555190159e-08
1.880106132e-07
-1.625000525e-08
1.970308767e-07
-1.724928126e-08
2.068486739e-07
-1.903095092e-08
2.172572889e-07
-1.999654445e-08
2.335089289e-07
-3.220463459e-08
2.358783323e-07
2.619267924e-09
2.983427345e-07
-2.133005456e-07
6.832333383e-07
2.62038699e-10
-7.663886673e-10
1.047654671e-09
-2.310829135e-09
2.353992035e-09
-3.84636525e-09
4.174669443e-09
-5.361523331e-09
6.500288505e-09
-6.848170987e-09
9.318731766e-09
-8.298320666e-09
1.261526371e-08
-9.704235332e-09
1.637267149e-08
-1.105841458e-08
2.057128971e-08
-1.235366804e-08
2.518916196e-08
-1.358315925e-08
3.020218525e-08
-1.474049535e-08
3.558429109e-08
-1.581983508e-08
4.130766607e-08
-1.68160057e-08
4.734301604e-08
-1.772463273e-08
5.365987815e-08
-1.854228217e-08
6.022698444e-08
-1.926661431e-08
6.701268068e-08
-1.989654811e-08
7.398540375e-08
-2.043243533e-08
8.111422021e-08
-2.087624357e-08
8.836942891e-08
-2.123174828e-08
9.57232307e-08
-2.150473513e-08
1.031504687e-07
-2.170321613e-08
1.106294444e-07
-2.183766587e-08
1.18142819e-07
-2.192129209e-08
1.256786077e-07
-2.197037291e-08
1.332313136e-07
-2.20047018e-08
1.408032052e-07
-2.204803549e-08
1.484057463e-07
-2.2128878e-08
1.560613674e-07
-2.228172135e-08
1.638056114e-07
-2.254845936e-08
1.716893664e-07
-2.298016031e-08
1.797816209e-07
-2.364415959e-08
1.881749786e-07
-2.464336653e-08
1.96992117e-07
-2.606642339e-08
2.064260107e-07
-2.846484859e-08
2.163683158e-07
-2.993885357e-08
2.291698303e-07
-4.500615322e-08
2.346214602e-07
-2.832366561e-09
2.582601843e-07
-2.369841252e-07
9.546869714e-07
2.63542965e-10
-1.029931696e-09
1.053355252e-09
-3.100641611e-09
2.366083422e-09
-5.15909373e-09
4.195333386e-09
-7.190773724e-09
6.531749609e-09
-9.184587759e-09
9.363209126e-09
-1.112978085e-08
1.26749388e-08
-1.301596579e-08
1.6449626e-08
-1.483310269e-08
2.066749337e-08
-1.657153644e-08
2.530642669e-08
-1.82220937e-08
3.03421229e-08
-1.977619279e-08
3.574826773e-08
-2.122598125e-08
4.149675221e-08
-2.256449163e-08
4.755793273e-08
-2.378581479e-08
5.390093897e-08
-2.488529004e-08
6.049403379e-08
-2.585971086e-08
6.730502861e-08
-2.670754475e-08
7.43017572e-08
-2.742916581e-08
8.145261044e-08
-2.802709879e-08
8.872713442e-08
-2.850627432e-08
9.609669347e-08
-2.887429631e-08
1.035352002e-07
-2.914172505e-08
1.110199149e-07
-2.932238286e-08
1.185323166e-07
-2.943369619e-08
1.260590485e-07
-2.949710739e-08
1.335929688e-07
-2.953862462e-08
1.411343239e-07
-2.958939336e-08
1.48691936e-07
-2.968649286e-08
1.562845834e-07
-2.987437176e-08
1.639426323e-07
-3.020651129e-08
1.717098366e-07
-3.074736782e-08
1.796421999e-07
-3.157652628e-08
1.878083594e-07
-3.28095295e-08
1.962916344e-07
-3.454970199e-08
2.05174421e-07
-3.734763899e-08
2.144019687e-07
-3.916640517e-08
2.240746993e-07
-5.467888774e-08
2.318027936e-07
-1.056046526e-08
2.40835633e-07
-2.460808857e-07
1.209972696e-06
2.653545976e-10
-1.295286355e-09
1.060440525e-09
-3.895727723e-09
2.381614819e-09
-6.480268326e-09
4.222382999e-09
-9.031542325e-09
6.573365345e-09
-1.153557064e-08
9.422396519e-09
-1.397881268e-08
1.275462757e-08
-1.634819761e-08
1.655262181e-08
-1.863109782e-08
2.079643948e-08
-2.081535511e-08
2.546375362e-08
-2.288940895e-08
3.05299922e-08
-2.48424326e-08
3.596851077e-08
-2.666450116e-08
4.175080311e-08
-2.83467854e-08
4.784675541e-08
-2.988176863e-08
5.422494882e-08
-3.126348507e-08
6.085301413e-08
-3.248777789e-08
6.769804243e-08
-3.355257485e-08
7.472705426e-08
-3.445817952e-08
8.190752969e-08
-3.520757619e-08
8.920800051e-08
-3.580674719e-08
9.659870516e-08
-3.62650031e-08
1.040523065e-07
-3.659532865e-08
1.115446719e-07
-3.681475058e-08
1.190557121e-07
-3.694473878e-08
1.265702672e-07
-3.701166496e-08
1.340790498e-07
-3.704740985e-08
1.415797324e-07
-3.709007864e-08
1.490778817e-07
-3.718464499e-08
1.565879497e-07
-3.738444269e-08
1.641342562e-07
-3.775282088e-08
1.717520178e-07
-3.836513265e-08
1.794860324e-07
-3.931054416e-08
1.873837595e-07
-4.070726012e-08
1.954962421e-07
-4.266218818e-08
2.038207139e-07
-4.56721146e-08
2.124296518e-07
-4.777534696e-08
2.201967908e-07
-6.244603054e-08
2.290239625e-07
-1.938764132e-08
2.291567792e-07
-2.46288619e-07
1.454408011e-06
2.675195405e-10
-1.562805957e-09
1.069020239e-09
-4.697228602e-09
2.400678842e-09
-7.811927228e-09
4.25588521e-09
-1.088674911e-08
6.625191165e-09
-1.390487713e-08
9.496354682e-09
-1.684997685e-08
1.285441691e-08
-1.970626061e-08
1.668178541e-08
-2.24584672e-08
2.095831355e-08
-2.509188423e-08
2.566140757e-08
-2.759250407e-08
3.076615989e-08
-2.994718614e-08
3.624551403e-08
-3.214385661e-08
4.207046752e-08
-3.417174032e-08
4.821031862e-08
-3.602162124e-08
5.463296167e-08
-3.768612975e-08
6.130523553e-08
-3.916005346e-08
6.819332821e-08
-4.044066932e-08
7.526324069e-08
-4.15280939e-08
8.248131143e-08
-4.242564891e-08
8.981480216e-08
-4.314023999e-08
9.723254446e-08
-4.368274756e-08
1.047056448e-07
-4.406843126e-08
1.122082446e-07
-4.431735269e-08
1.197183277e-07
-4.445482426e-08
1.272185531e-07
-4.451189292e-08
1.34697093e-07
-4.452595232e-08
1.421485945e-07
-4.454158297e-08
1.49574978e-07
-4.461103134e-08
1.569860652e-07
-4.479553284e-08
1.64400057e-07
-4.516681578e-08
1.718437357e-07
-4.580881452e-08
1.793519229e-07
-4.681873475e-08
1.869589041e-07
-4.831424474e-08
1.946986303e-07
-5.040191797e-08
2.025296129e-07
-5.350310094e-08
2.106872182e-07
-5.593295619e-08
2.174606264e-07
-6.921944264e-08
2.277873463e-07
-2.971436544e-08
2.193943601e-07
-2.379693991e-07
1.689647307e-06
2.700691279e-10
-1.832875145e-09
1.079175232e-09
-5.506334883e-09
2.423373833e-09
-9.156126122e-09
4.295944513e-09
-1.275932019e-08
6.687345906e-09
-1.629627904e-08
9.585231644e-09
-1.974786322e-08
1.297450339e-08
-2.309553311e-08
1.683738031e-08
-2.632134498e-08
2.11534677e-08
-2.94079726e-08
2.589985325e-08
-3.233889071e-08
3.105122941e-08
-3.50985635e-08
3.658004817e-08
-3.767267667e-08
4.245671411e-08
-4.004840767e-08
4.864982187e-08
-4.221473052e-08
5.512644291e-08
-4.41627524e-08
6.185246608e-08
-4.588607835e-08
6.879299561e-08
-4.738120066e-08
7.591280871e-08
-4.86479089e-08
8.317687439e-08
-4.968971658e-08
9.055093316e-08
-5.051430084e-08
9.800213576e-08
-5.113395234e-08
1.05499737e-07
-5.156603482e-08
1.130158385e-07
-5.183345645e-08
1.205261686e-07
-5.196515691e-08
1.280108776e-07
-5.199660447e-08
1.35455293e-07
-5.197037033e-08
1.428507083e-07
-5.193700106e-08
1.501951879e-07
-5.195551378e-08
1.574938661e-07
-5.209421399e-08
1.647591702e-07
-5.243212303e-08
1.720106094e-07
-5.306025688e-08
1.792740253e-07
-5.408215402e-08
1.865770763e-07
-5.561729927e-08
1.939464898e-07
-5.777133502e-08
2.013392292e-07
-6.089584404e-08
2.091041245e-07
-6.369785543e-08
2.153681788e-07
-7.548350076e-08
2.300460432e-07
-4.439223406e-08
2.110976723e-07
-2.190918432e-07
1.916972633e-06
2.730213067e-10
-2.105896511e-09
1.090958527e-09
-6.324272277e-09
2.449778601e-09
-1.051494648e-08
4.342659974e-09
-1.465220196e-08
6.75995565e-09
-1.871357523e-08
9.68919468e-09
-2.267710287e-08
1.311511447e-08
-2.652145363e-08
1.701971593e-08
-3.022594728e-08
2.13823185e-08
-3.377057613e-08
2.617964285e-08
-3.713621613e-08
3.138592018e-08
-4.030484202e-08
3.697303449e-08
-4.325979227e-08
4.291070367e-08
-4.598607825e-08
4.916670576e-08
-4.847073413e-08
5.570715556e-08
-5.070320381e-08
6.249683625e-08
-5.267576075e-08
6.949958963e-08
-5.438395586e-08
7.667876737e-08
-5.582708855e-08
8.399774418e-08
-5.700869541e-08
9.142049237e-08
-5.793705113e-08
9.89122146e-08
-5.862567676e-08
1.064400297e-07
-5.909385219e-08
1.139737023e-07
-5.936713143e-08
1.214864044e-07
-5.947786149e-08
1.289554877e-07
-5.946569034e-08
1.363631946e-07
-5.937807992e-08
1.436972735e-07
-5.927108282e-08
1.509518243e-07
-5.921006741e-08
1.581274185e-07
-5.92698112e-08
1.652311623e-07
-5.953586998e-08
1.722764353e-07
-6.010553313e-08
1.792822992e-07
-6.108802126e-08
1.862708567e-07
-6.26058602e-08
1.93265862e-07
-6.4766344e-08
2.002301503e-07
-6.786013592e-08
2.075932983e-07
-7.106100738e-08
2.132369842e-07
-8.112719046e-08
2.299205807e-07
-6.107583468e-08
2.03361595e-07
-1.925977013e-07
2.136788003e-06
2.76388034e-10
-2.382284602e-09
1.104409116e-09
-7.152293528e-09
2.479960383e-09
-1.189049803e-08
4.396127759e-09
-1.656836972e-08
6.843153406e-09
-2.116060137e-08
9.808428365e-09
-2.564237844e-08
1.327650646e-08
-2.998953244e-08
1.722914487e-08
-3.417858652e-08
2.16453436e-08
-3.818677581e-08
2.650141204e-08
-4.199228562e-08
3.17710629e-08
-4.557449405e-08
3.742553952e-08
-4.891427017e-08
4.343378289e-08
-5.199432301e-08
4.976264473e-08
-5.479959747e-08
5.637715228e-08
-5.731771297e-08
6.324082978e-08
-5.953943995e-08
7.031608027e-08
-6.145920817e-08
7.756463033e-08
-6.307564052e-08
8.494803818e-08
-6.439210527e-08
9.242826446e-08
-6.541727953e-08
9.996830192e-08
-6.616571643e-08
1.075328573e-07
-6.665840988e-08
1.150890752e-07
-6.692335175e-08
1.226072896e-07
-6.699607836e-08
1.300617875e-07
-6.692019087e-08
1.37431516e-07
-6.674781121e-08
1.447006192e-07
-6.654018883e-08
1.518591318e-07
-6.636858287e-08
1.589033211e-07
-6.631400353e-08
1.658354856e-07
-6.646803765e-08
1.726636973e-07
-6.693374811e-08
1.794012569e-07
-6.782558422e-08
1.860657966e-07
-6.927040328e-08
1.92681301e-07
-7.138185201e-08
1.991993383e-07
-7.437817687e-08
2.060710454e-07
-7.793271838e-08
2.10962173e-07
-8.601832183e-08
2.26557908e-07
-7.667157373e-08
1.961940213e-07
-1.622930755e-07
2.34958286e-06
2.801781661e-10
-2.662462824e-09
1.119558062e-09
-7.991673588e-09
2.513978696e-09
-1.328491893e-08
4.456441253e-09
-1.851083266e-08
6.937076506e-09
-2.364123711e-08
9.943130142e-09
-2.864843267e-08
1.345895902e-08
-3.350536203e-08
1.746605628e-08
-3.818568459e-08
2.194307417e-08
-4.266379463e-08
2.686587164e-08
-4.691508413e-08
3.220759048e-08
-5.091621404e-08
3.793876532e-08
-5.464544628e-08
4.402747421e-08
-5.808303328e-08
5.043953649e-08
-6.121166124e-08
5.713876418e-08
-6.401694226e-08
6.408727199e-08
-6.648794946e-08
7.12458501e-08
-6.86177881e-08
7.857440224e-08
-7.040419459e-08
8.603244982e-08
-7.185015488e-08
9.357970074e-08
-7.296453259e-08
1.011766792e-07
-7.376269715e-08
1.087854091e-07
-7.426714211e-08
1.163701396e-07
-7.450808465e-08
1.238980978e-07
-7.452403909e-08
1.313402552e-07
-7.436235096e-08
1.386720649e-07
-7.407962362e-08
1.458740127e-07
-7.374213946e-08
1.529320462e-07
-7.34266193e-08
1.598383646e-07
-7.322032499e-08
1.665910372e-07
-7.322071339e-08
1.731935939e-07
-7.353630805e-08
1.796541711e-07
-7.428616481e-08
1.859852735e-07
-7.560150915e-08
1.922141401e-07
-7.761072213e-08
1.982800281e-07
-8.044406846e-08
2.046178074e-07
-8.427050157e-08
2.087359465e-07
-9.013646471e-08
2.234728184e-07
-9.14084496e-08
1.898247568e-07
-1.286965095e-07
2.556105322e-06
2.843988543e-10
-2.946861733e-09
1.136431674e-09
-8.843706568e-09
2.551887629e-09
-1.470037515e-08
4.523690926e-09
-2.048263632e-08
7.041864205e-09
-2.615941085e-08
1.009350607e-08
-3.170007511e-08
1.366276931e-08
-3.707462595e-08
1.773086874e-08
-4.225378481e-08
2.227608659e-08
-4.720901338e-08
2.727379817e-08
-5.191279672e-08
3.269652763e-08
-5.633894463e-08
3.851403822e-08
-6.046295811e-08
4.469346381e-08
-6.426246023e-08
5.119948955e-08
-6.771768845e-08
5.799458801e-08
-7.081204231e-08
6.503931654e-08
-7.35326797e-08
7.229268032e-08
-7.58711537e-08
7.971256392e-08
-7.782408012e-08
8.725623239e-08
-7.939382539e-08
9.488090049e-08
-8.058920283e-08
1.025443661e-07
-8.142616499e-08
1.102057005e-07
-8.192847885e-08
1.178259842e-07
-8.21283709e-08
1.253690737e-07
-8.206713108e-08
1.328023807e-07
-8.179566067e-08
1.400976468e-07
-8.137489249e-08
1.472315696e-07
-8.087606512e-08
1.541861748e-07
-8.038122749e-08
1.609495806e-07
-7.998373377e-08
1.675161016e-07
-7.978723757e-08
1.738855748e-07
-7.990578447e-08
1.800626055e-07
-8.046319894e-08
1.860547903e-07
-8.159369731e-08
1.918861647e-07
-8.344210012e-08
1.97509574e-07
-8.606748135e-08
2.033176407e-07
-9.0078572e-08
2.068027814e-07
-9.362160921e-08
2.20462758e-07
-1.050684301e-07
1.840419819e-07
-9.231760111e-08
2.75691095e-06
2.890561855e-10
-3.235917971e-09
1.155052982e-09
-9.709703518e-09
2.593736783e-09
-1.61390592e-08
4.597963572e-09
-2.248686346e-08
7.157654886e-09
-2.871910262e-08
1.025976609e-08
-3.480218687e-08
1.388824548e-08
-4.0703106e-08
1.802402214e-08
-4.638956224e-08
2.264499285e-08
-5.182998497e-08
2.772602292e-08
-5.699382779e-08
3.323897885e-08
-6.185190167e-08
3.915279582e-08
-6.637677632e-08
4.543358789e-08
-7.054325364e-08
5.204480888e-08
-7.43289109e-08
5.894747148e-08
-7.771470649e-08
6.610043058e-08
-8.068564049e-08
7.346073588e-08
-8.323146081e-08
8.098405714e-08
-8.534740331e-08
8.862518322e-08
-8.703495351e-08
9.633859393e-08
-8.83026157e-08
1.04079101e-07
-8.916667433e-08
1.118025511e-07
-8.965193129e-08
1.194665798e-07
-8.979240216e-08
1.270314042e-07
-8.963195799e-08
1.344606278e-07
-8.922488694e-08
1.417220462e-07
-8.863631367e-08
1.487884027e-07
-8.794242453e-08
1.5563788e-07
-8.723070775e-08
1.622545159e-07
-8.660037276e-08
1.686289972e-07
-8.616172202e-08
1.747579097e-07
-8.603470021e-08
1.806433458e-07
-8.634863836e-08
1.862905729e-07
-8.724092783e-08
1.917223854e-07
-8.887391624e-08
1.96920889e-07
-9.126598842e-08
2.021571783e-07
-9.531486504e-08
2.051606378e-07
-9.662507235e-08
2.181262039e-07
-1.180340001e-07
1.787431812e-07
-5.296477318e-08
2.952462312e-06
2.941554387e-10
-3.530073461e-09
1.17544226e-09
-1.059099049e-08
2.639571223e-09
-1.760318841e-08
4.679340813e-09
-2.452663339e-08
7.284582672e-09
-3.132434492e-08
1.044211863e-08
-3.795972338e-08
1.413569941e-08
-4.439668743e-08
1.834596855e-08
-5.059983214e-08
2.305042972e-08
-5.6534447e-08
2.822341969e-08
-6.216681873e-08
3.38361147e-08
-6.746459778e-08
3.985657231e-08
-7.239723513e-08
4.624981718e-08
-7.693649984e-08
5.297797995e-08
-8.105707511e-08
6.000049702e-08
-8.473722513e-08
6.727437848e-08
-8.795952364e-08
7.475454947e-08
-9.07116336e-08
8.239426909e-08
-9.298712486e-08
9.014562851e-08
-9.478631497e-08
9.796012768e-08
-9.611711702e-08
1.057893275e-07
-9.69958764e-08
1.135855711e-07
-9.744817728e-08
1.213027653e-07
-9.750959887e-08
1.288972067e-07
-9.722640197e-08
1.363284225e-07
-9.665610547e-08
1.435600239e-07
-9.586791787e-08
1.505605855e-07
-9.494298896e-08
1.573043129e-07
-9.397443816e-08
1.637714177e-07
-9.306748065e-08
1.699487511e-07
-9.233905854e-08
1.758300525e-07
-9.191600488e-08
1.81415595e-07
-9.193418415e-08
1.867097618e-07
-9.253509804e-08
1.917346925e-07
-9.389885039e-08
1.964825351e-07
-9.601383452e-08
2.012016619e-07
-1.000339955e-07
2.038485736e-07
-9.927198773e-08
2.162748234e-07
-1.304599808e-07
1.738036121e-07
-1.051121614e-08
3.143103199e-06
2.99701131e-10
-3.829774641e-09
1.197616945e-09
-1.148890645e-08
2.689430684e-09
-1.909500239e-08
4.767896882e-09
-2.660509992e-08
7.422773329e-09
-3.39792218e-08
1.064076445e-08
-4.117771503e-08
1.44054384e-08
-4.816136201e-08
1.869716193e-08
-5.489155641e-08
2.349304654e-08
-6.133033245e-08
2.876689075e-08
-6.74406639e-08
3.448915651e-08
-7.318686461e-08
4.062698192e-08
-7.853506172e-08
4.714423971e-08
-8.345375894e-08
5.400165111e-08
-8.791448793e-08
6.115696421e-08
-9.189253977e-08
6.856520466e-08
-9.536776577e-08
7.617900499e-08
-9.832543571e-08
8.394901698e-08
-1.007571388e-07
9.182440977e-08
-1.026617098e-07
9.975345334e-08
-1.040461628e-07
1.076841854e-07
-1.049266108e-07
1.155651567e-07
-1.053291509e-07
1.233462465e-07
-1.052906912e-07
1.309795302e-07
-1.048596882e-07
1.384201652e-07
-1.040967432e-07
1.456273231e-07
-1.030750786e-07
1.525651562e-07
-1.018808249e-07
1.592036762e-07
-1.006129612e-07
1.655192676e-07
-9.938307509e-08
1.714951761e-07
-9.831497015e-08
1.771224464e-07
-9.754327843e-08
1.824001077e-07
-9.721184869e-08
1.873325992e-07
-9.746759292e-08
1.919391817e-07
-9.85054363e-08
1.962033034e-07
-1.002779597e-07
2.004426624e-07
-1.042733581e-07
2.027732798e-07
-1.016026088e-07
2.148519496e-07
-1.425377171e-07
1.692139582e-07
3.512243605e-08
3.329173369e-06
3.05696931e-10
-4.135471619e-09
1.221591166e-09
-1.240480082e-08
2.743348179e-09
-2.061675963e-08
4.863695754e-09
-2.872544782e-08
7.57233941e-09
-3.668786587e-08
1.085588952e-08
-4.446126565e-08
1.469775571e-08
-5.200322881e-08
1.907804625e-08
-5.927184767e-08
2.39734912e-08
-6.622577823e-08
2.935735102e-08
-7.282452466e-08
3.519935886e-08
-7.90288735e-08
4.146570038e-08
-8.480140441e-08
4.811904146e-08
-9.01071013e-08
5.511861407e-08
-9.491406194e-08
6.242037055e-08
-9.919429778e-08
6.997721527e-08
-1.029246122e-07
7.773932065e-08
-1.060875429e-07
8.565453298e-08
-1.08672353e-07
9.366887114e-08
-1.1067605e-07
1.017271187e-07
-1.121044125e-07
1.097735081e-07
-1.129730025e-07
1.177524945e-07
-1.133081397e-07
1.256096097e-07
-1.131478089e-07
1.332923749e-07
-1.125424561e-07
1.40751263e-07
-1.11555634e-07
1.479407174e-07
-1.102645357e-07
1.548201904e-07
-1.087603009e-07
1.613551893e-07
-1.07147963e-07
1.675181069e-07
-1.055459958e-07
1.732888877e-07
-1.04085754e-07
1.786558051e-07
-1.02910199e-07
1.836165851e-07
-1.02172632e-07
1.881754065e-07
-1.020264176e-07
1.923539804e-07
-1.026840137e-07
1.961361191e-07
-1.040601018e-07
1.998366462e-07
-1.079738886e-07
2.017027679e-07
-1.034687341e-07
2.12996872e-07
-1.538299834e-07
1.649965158e-07
8.313164422e-08
3.511037946e-06
3.121454851e-10
-4.44761715e-09
1.247374979e-09
-1.334003045e-08
2.801348112e-09
-2.217073299e-08
4.966787607e-09
-3.089088763e-08
7.733374681e-09
-3.945445335e-08
1.108765704e-08
-4.78155485e-08
1.501291977e-08
-5.592849215e-08
1.948904203e-08
-6.374797062e-08
2.449239428e-08
-7.122913128e-08
2.99957101e-08
-7.832784139e-08
3.596798995e-08
-8.500115437e-08
4.237444392e-08
-9.120785952e-08
4.917648474e-08
-9.690914338e-08
5.633178219e-08
-1.020693608e-07
6.379439043e-08
-1.066569075e-07
7.151495841e-08
-1.106451818e-07
7.944103128e-08
-1.140136175e-07
8.751744923e-08
-1.167487729e-07
9.568684752e-08
-1.188454503e-07
1.03890259e-07
-1.203078261e-07
1.120678184e-07
-1.211505641e-07
1.201595649e-07
-1.213998886e-07
1.281063363e-07
-1.210945828e-07
1.358507343e-07
-1.202868566e-07
1.433381968e-07
-1.190430993e-07
1.505181018e-07
-1.174444435e-07
1.573448944e-07
-1.155870963e-07
1.637792681e-07
-1.135823397e-07
1.697893331e-07
-1.115560638e-07
1.75351526e-07
-1.0964795e-07
1.804515234e-07
-1.080101996e-07
1.850854727e-07
-1.068065845e-07
1.892572816e-07
-1.061982298e-07
1.929918367e-07
-1.064185721e-07
1.962654281e-07
-1.073336966e-07
1.993826187e-07
-1.110910826e-07
2.006792661e-07
-1.04765385e-07
2.107497927e-07
-1.638976998e-07
1.610681292e-07
1.328347422e-07
3.688980727e-06
3.190481754e-10
-4.76666537e-09
1.274973331e-09
-1.429595574e-08
2.863443889e-09
-2.375920376e-08
5.077204521e-09
-3.310464857e-08
7.905947695e-09
-4.228319692e-08
1.13361984e-08
-5.12457997e-08
1.535116192e-08
-5.994345624e-08
1.993053104e-08
-6.832734043e-08
2.505035121e-08
-7.634895224e-08
3.068285215e-08
-8.396034322e-08
3.679630955e-08
-9.111461277e-08
4.335494593e-08
-9.776649701e-08
5.031888413e-08
-1.038730828e-07
5.76441665e-08
-1.093946445e-07
6.528285196e-08
-1.142955945e-07
7.318320275e-08
-1.185455342e-07
8.128996945e-08
-1.221203859e-07
8.954478252e-08
-1.250035878e-07
9.788665372e-08
-1.271873235e-07
1.062525905e-07
-1.286737651e-07
1.145783231e-07
-1.294762989e-07
1.227991378e-07
-1.296207057e-07
1.308508069e-07
-1.291462543e-07
1.386706301e-07
-1.281066824e-07
1.461985956e-07
-1.265710674e-07
1.533786125e-07
-1.246244632e-07
1.601597516e-07
-1.223682382e-07
1.664975621e-07
-1.199201531e-07
1.72355476e-07
-1.174139808e-07
1.777061077e-07
-1.149985849e-07
1.82532282e-07
-1.12836377e-07
1.868284923e-07
-1.111027979e-07
1.905985522e-07
-1.099682929e-07
1.93869425e-07
-1.096894482e-07
1.966108116e-07
-1.100750864e-07
1.991137812e-07
-1.135940557e-07
1.998193827e-07
-1.054709899e-07
2.087373346e-07
-1.728119127e-07
1.5735787e-07
1.842478653e-07
3.863215869e-06
3.264048038e-10
-5.093070218e-09
1.304384791e-09
-1.527393585e-08
2.929635008e-09
-2.538445419e-08
5.194955327e-09
-3.536996918e-08
8.090094391e-09
-4.517833637e-08
1.160160312e-08
-5.47573089e-08
1.571266205e-08
-6.405451575e-08
2.040283955e-08
-7.301751859e-08
2.564790235e-08
-8.159401581e-08
3.141961307e-08
-8.973205481e-08
3.768554417e-08
-9.738054486e-08
4.440893075e-08
-1.044898847e-07
5.154857972e-08
-1.11012733e-07
5.905884917e-08
-1.169049153e-07
6.688971163e-08
-1.221264584e-07
7.498691424e-08
-1.266427384e-07
8.32922455e-08
-1.304257189e-07
9.174391855e-08
-1.334552627e-07
1.002770743e-07
-1.357204812e-07
1.088244081e-07
-1.37221101e-07
1.173169201e-07
-1.379688131e-07
1.256847827e-07
-1.379885706e-07
1.338583192e-07
-1.373197932e-07
1.417691209e-07
-1.360174866e-07
1.493512701e-07
-1.341532193e-07
1.565427011e-07
-1.318158969e-07
1.632866536e-07
-1.291121935e-07
1.69533125e-07
-1.261666274e-07
1.75240458e-07
-1.231213166e-07
1.803769845e-07
-1.201351144e-07
1.84922404e-07
-1.173817996e-07
1.888692953e-07
-1.150496924e-07
1.922214011e-07
-1.133204018e-07
1.95008733e-07
-1.124767833e-07
1.971987736e-07
-1.122651302e-07
1.990820945e-07
-1.154773799e-07
1.99205858e-07
-1.055947568e-07
2.069593401e-07
-1.805608159e-07
1.53876809e-07
2.373759235e-07
4.033969309e-06
3.342132198e-10
-5.42728348e-09
1.335600052e-09
-1.627532281e-08
2.999903696e-09
-2.704875805e-08
5.320019469e-09
-3.769008525e-08
8.285806239e-09
-4.814412352e-08
1.188390509e-08
-5.835540822e-08
1.60975375e-08
-6.826814871e-08
2.090622116e-08
-7.782620291e-08
2.628551041e-08
-8.697330582e-08
3.220675453e-08
-9.565329978e-08
3.86368588e-08
-1.038106501e-07
4.55380841e-08
-1.113911111e-07
5.286790705e-08
-1.183425571e-07
6.057895405e-08
-1.246159636e-07
6.861902646e-08
-1.301665322e-07
7.693123109e-08
-1.349549445e-07
8.545422614e-08
-1.389487156e-07
9.412259557e-08
-1.421236339e-07
1.028673533e-07
-1.444652409e-07
1.116165832e-07
-1.45970333e-07
1.202962122e-07
-1.466484443e-07
1.288309144e-07
-1.46523275e-07
1.371451528e-07
-1.45634034e-07
1.45164358e-07
-1.440366943e-07
1.528162311e-07
-1.41805095e-07
1.60032189e-07
-1.390318576e-07
1.667490223e-07
-1.358290296e-07
1.72910643e-07
-1.323282509e-07
1.784698213e-07
-1.286804979e-07
1.833901102e-07
-1.250554062e-07
1.876476863e-07
-1.216393787e-07
1.912331612e-07
-1.186351704e-07
1.941504576e-07
-1.162377012e-07
1.964305612e-07
-1.147568901e-07
1.980514175e-07
-1.138859896e-07
1.992957909e-07
-1.167217566e-07
1.989104495e-07
-1.052094186e-07
2.05385519e-07
-1.870305265e-07
1.506584258e-07
2.921603632e-07
4.20150171e-06
3.424689008e-10
-5.769752423e-09
1.368600196e-09
-1.730145423e-08
3.074211053e-09
-2.875436911e-08
5.452340559e-09
-4.006821504e-08
8.493022779e-09
-5.118480612e-08
1.218306875e-08
-6.204545466e-08
1.650582272e-08
-7.259090324e-08
2.144083621e-08
-8.276121704e-08
2.696353641e-08
-9.249600676e-08
3.304493621e-08
-1.017347004e-07
3.965132527e-08
-1.104170401e-07
4.674401939e-08
-1.184838063e-07
5.427916297e-08
-1.258777019e-07
6.220761344e-08
-1.325444153e-07
7.04749229e-08
-1.384338431e-07
7.902143589e-08
-1.43501459e-07
8.778251135e-08
-1.477097927e-07
9.668888715e-08
-1.510300115e-07
1.056671849e-07
-1.534435405e-07
1.146405629e-07
-1.54943713e-07
1.235295148e-07
-1.555373984e-07
1.322528166e-07
-1.55246579e-07
1.407286206e-07
-1.541098405e-07
1.488756962e-07
-1.521837723e-07
1.566148246e-07
-1.495442259e-07
1.638703498e-07
-1.462873854e-07
1.705719393e-07
-1.425306218e-07
1.766566512e-07
-1.384129655e-07
1.82071051e-07
-1.340949006e-07
1.867733411e-07
-1.297576992e-07
1.907356548e-07
-1.256016954e-07
1.939464299e-07
-1.218459485e-07
1.964103548e-07
-1.187016292e-07
1.981595144e-07
-1.165060527e-07
1.991891872e-07
-1.149156655e-07
1.997530812e-07
-1.172856539e-07
1.988313649e-07
-1.042877055e-07
2.039734134e-07
-1.921665443e-07
1.476775131e-07
3.485255371e-07
4.366049959e-06
3.511644345e-10
-6.120916899e-09
1.403354656e-09
-1.835364458e-08
3.15249256e-09
-3.050350722e-08
5.591818628e-09
-4.25075414e-08
8.711620366e-09
-5.430460823e-08
1.249897397e-08
-6.583280872e-08
1.693744504e-08
-7.702937486e-08
2.200672484e-08
-8.783049747e-08
2.768221662e-08
-9.817149927e-08
3.393468737e-08
-1.07987172e-07
4.072988975e-08
-1.172122434e-07
4.802824096e-08
-1.257821585e-07
5.578456712e-08
-1.336340292e-07
6.39479299e-08
-1.407077794e-07
7.246156136e-08
-1.469474759e-07
8.126292466e-08
-1.523028238e-07
9.028390905e-08
-1.567307787e-07
9.945118372e-08
-1.601972879e-07
1.086867024e-07
-1.62679061e-07
1.179083704e-07
-1.64165383e-07
1.270308702e-07
-1.646599003e-07
1.359666549e-07
-1.641823658e-07
1.44627087e-07
-1.627702749e-07
1.529237391e-07
-1.604804267e-07
1.607698707e-07
-1.573903601e-07
1.680820985e-07
-1.535996159e-07
1.747822841e-07
-1.492308101e-07
1.807997524e-07
-1.444304365e-07
1.860739194e-07
-1.393690704e-07
1.905568826e-07
-1.342406653e-07
1.942160727e-07
-1.292608883e-07
1.970372519e-07
-1.246671307e-07
1.990259129e-07
-1.206902931e-07
2.002156375e-07
-1.176957803e-07
2.006236807e-07
-1.153237118e-07
2.004921907e-07
-1.17154167e-07
1.989426283e-07
-1.027381463e-07
2.027319859e-07
-1.9594928e-07
1.44859106e-07
4.064794963e-07
4.5277766e-06
3.602888497e-10
-6.48120579e-09
1.439818653e-09
-1.94331745e-08
3.234652534e-09
-3.229834131e-08
5.738300553e-09
-4.501118971e-08
8.94139647e-09
-5.750770452e-08
1.283139511e-08
-6.972280782e-08
1.739220238e-08
-8.159018267e-08
2.260377427e-08
-9.304206999e-08
2.844162677e-08
-1.040093525e-07
3.487637701e-08
-1.144219231e-07
4.187334103e-08
-1.242092083e-07
4.939210983e-08
-1.333009283e-07
5.738622235e-08
-1.416281428e-07
6.580293482e-08
-1.491244931e-07
7.458309567e-08
-1.557276381e-07
8.366117032e-08
-1.613808999e-07
9.296540562e-08
-1.660350156e-07
1.024181715e-07
-1.696500555e-07
1.119364679e-07
-1.721973591e-07
1.214326055e-07
-1.736615225e-07
1.308150584e-07
-1.740423553e-07
1.399895078e-07
-1.733568174e-07
1.488600188e-07
-1.716407881e-07
1.573303966e-07
-1.68950807e-07
1.653057357e-07
-1.653657016e-07
1.726941835e-07
-1.609880662e-07
1.794089813e-07
-1.559456105e-07
1.853708384e-07
-1.503922963e-07
1.905108329e-07
-1.445090676e-07
1.947738248e-07
-1.3850366e-07
1.981216188e-07
-1.326086851e-07
2.005365665e-07
-1.270820813e-07
2.020242434e-07
-1.221779729e-07
2.026205572e-07
-1.182920971e-07
2.023684368e-07
-1.150715943e-07
2.014945586e-07
-1.162802918e-07
1.99324809e-07
-1.005683998e-07
2.016186448e-07
-1.98235844e-07
1.421755096e-07
4.660153173e-07
4.686816964e-06
3.698268817e-10
-6.851032713e-09
1.477930391e-09
-2.054127814e-08
3.320558053e-09
-3.414096918e-08
5.891569698e-09
-4.758220164e-08
9.18205416e-09
-6.079818935e-08
1.317997564e-08
-7.372072976e-08
1.78697374e-08
-8.627994497e-08
2.323169489e-08
-9.840402811e-08
2.924162787e-08
-1.100192862e-07
3.587016553e-08
-1.210504615e-07
4.308227517e-08
-1.314213189e-07
5.083681225e-08
-1.410554664e-07
5.908608759e-08
-1.498774193e-07
6.777555534e-08
-1.57813962e-07
7.684363488e-08
-1.647957189e-07
8.62216832e-08
-1.707589497e-07
9.583412832e-08
-1.756474622e-07
1.055988032e-07
-1.79414732e-07
1.154274544e-07
-1.82026012e-07
1.252264391e-07