/*--------------------------------*- C++ -*----------------------------------*\
| =========                 |                                                 |
| \\      /  F ield         | OpenFOAM: The Open Source CFD Toolbox           |
|  \\    /   O peration     | Version:  v1912                                 |
|   \\  /    A nd           | Website:  www.openfoam.com                      |
|    \\/     M anipulation  |                                                 |
\*---------------------------------------------------------------------------*/
FoamFile
{
    version     2.0;
    format      ascii;
    class       surfaceScalarField;
    location    "0.8";
    object      phi.gas;
}
// * * * * * * * * * * * * * * * * * * * * * * * * * * * * * * * * * * * * * //

dimensions      [0 3 -1 0 0 0 0];
oriented        oriented;


internalField   nonuniform List<scalar> 
9440
(
2.449270046e-10
7.315055001e-09
9.913849198e-10
2.193366618e-08
2.235454936e-09
3.655621335e-08
3.969715766e-09
5.118610067e-08
6.184489109e-09
6.582564086e-08
8.867406526e-09
8.047749017e-08
1.200353516e-08
9.514420169e-08
1.557541395e-08
1.09828287e-07
1.956316513e-08
1.24532153e-07
2.39446277e-08
1.392580726e-07
2.869550459e-08
1.540081734e-07
3.378955139e-08
1.687843957e-07
3.919880499e-08
1.835884534e-07
4.489385529e-08
1.984217906e-07
5.084416396e-08
2.132855346e-07
5.701843376e-08
2.281804458e-07
6.338503191e-08
2.431068631e-07
6.991247051e-08
2.580646472e-07
7.656994691e-08
2.730531206e-07
8.332794718e-08
2.880710042e-07
9.015891621e-08
3.031163507e-07
9.703799956e-08
3.181864724e-07
1.039438649e-07
3.332778619e-07
1.108596155e-07
3.483860993e-07
1.177738316e-07
3.635057249e-07
1.246817658e-07
3.786300851e-07
1.315866799e-07
3.937511896e-07
1.38501527e-07
4.08859368e-07
1.454511087e-07
4.239427945e-07
1.5247489e-07
4.389868077e-07
1.596309151e-07
4.539728502e-07
1.670026289e-07
4.68875609e-07
1.74718102e-07
4.836507168e-07
1.829300668e-07
4.98272395e-07
1.921313252e-07
5.124064834e-07
2.016903508e-07
5.271478459e-07
2.177204466e-07
5.359051164e-07
2.123101044e-07
5.719107521e-07
3.545169016e-07
4.163744405e-07
9.439559609e-07
2.613667014e-10
6.538466396e-09
1.046423809e-09
1.960318665e-08
2.352952233e-09
3.267401067e-08
4.174120347e-09
4.575893047e-08
6.50030358e-09
5.88630997e-08
9.319202598e-09
7.199182298e-08
1.261591385e-08
8.515025229e-08
1.637297926e-08
9.834344083e-08
2.057057814e-08
1.115761542e-07
2.518658795e-08
1.248529618e-07
3.019674318e-08
1.381781294e-07
3.557482449e-08
1.515555481e-07
4.129288586e-08
1.649886565e-07
4.732152515e-08
1.784803542e-07
5.363020236e-08
1.920329073e-07
6.018760961e-08
2.056478464e-07
6.696209624e-08
2.193258569e-07
7.392215253e-08
2.330666639e-07
8.103695479e-08
2.468689102e-07
8.827697524e-08
2.607300286e-07
9.561466e-08
2.746461069e-07
1.030251802e-07
2.886117421e-07
1.104872638e-07
3.026198808e-07
1.179841198e-07
3.166616334e-07
1.255044786e-07
3.307260311e-07
1.330437849e-07
3.447997183e-07
1.406055529e-07
3.588666497e-07
1.482030089e-07
3.729074555e-07
1.558611612e-07
3.868985422e-07
1.636192184e-07
4.008110479e-07
1.715336343e-07
4.146091713e-07
1.796849999e-07
4.282435529e-07
1.881891144e-07
4.416346786e-07
1.971945391e-07
4.547236599e-07
2.070004818e-07
4.670287433e-07
2.173889433e-07
4.801460722e-07
2.336733405e-07
4.820206676e-07
2.351957482e-07
5.308738707e-07
2.819051145e-07
3.16038824e-07
1.2173393e-06
2.629134168e-10
6.306348826e-09
1.051516211e-09
1.890733532e-08
2.362827902e-09
3.151730479e-08
4.190360856e-09
4.414780062e-08
6.524629258e-09
5.680701428e-08
9.353380734e-09
6.950298867e-08
1.26617219e-08
8.22435121e-08
1.643225388e-08
9.503613212e-08
2.064510524e-08
1.078880808e-07
2.527809496e-08
1.208062309e-07
3.030688006e-08
1.337970053e-07
3.570514006e-08
1.468662687e-07
4.144480133e-08
1.600192104e-07
4.749630506e-08
1.732602138e-07
5.382892334e-08
1.865927145e-07
6.041112679e-08
2.000190457e-07
6.721100751e-08
2.135402747e-07
7.419676045e-08
2.271560279e-07
8.133722593e-08
2.408643085e-07
8.860249594e-08
2.546613043e-07
9.596458749e-08
2.685411863e-07
1.03398186e-07
2.824958922e-07
1.108814646e-07
2.965148908e-07
1.183969879e-07
3.105849119e-07
1.259327094e-07
3.246896092e-07
1.334831065e-07
3.388091148e-07
1.410504632e-07
3.529195914e-07
1.486463011e-07
3.669924454e-07
1.562931539e-07
3.80993085e-07
1.640267167e-07
3.948795037e-07
1.718980392e-07
4.086004998e-07
1.799764007e-07
4.220886062e-07
1.883548098e-07
4.352406467e-07
1.971562655e-07
4.479675674e-07
2.065755873e-07
4.597170835e-07
2.164989053e-07
4.723866724e-07
2.293012344e-07
4.71460295e-07
2.324510724e-07
5.277424688e-07
2.393434589e-07
2.931712027e-07
1.492146747e-06
2.64396208e-10
6.040371805e-09
1.057244573e-09
1.81102256e-08
2.375008264e-09
3.019244234e-08
4.211193477e-09
4.230162941e-08
6.556357515e-09
5.444896091e-08
9.398241271e-09
6.66452665e-08
1.272191218e-08
7.890100248e-08
1.650986929e-08
9.122627196e-08
2.074212689e-08
1.036307863e-07
2.539634345e-08
1.161237675e-07
3.044797302e-08
1.287138378e-07
3.587044629e-08
1.414088809e-07
4.163539083e-08
1.542158864e-07
4.77128951e-08
1.671407754e-07
5.407182036e-08
1.801882106e-07
6.068016478e-08
1.933613899e-07
6.750548281e-08
2.066618269e-07
7.451536313e-08
2.200891182e-07
8.167796734e-08
2.336406997e-07
8.896263182e-08
2.473115915e-07
9.634053432e-08
2.610941313e-07
1.037854273e-07
2.749776912e-07
1.112744402e-07
2.889483733e-07
1.187889534e-07
3.029886675e-07
1.263155457e-07
3.170770404e-07
1.338470469e-07
3.311873854e-07
1.413837149e-07
3.452884507e-07
1.489344245e-07
3.593430397e-07
1.565180512e-07
3.733065749e-07
1.64165103e-07
3.871254297e-07
1.719194954e-07
4.007349793e-07
1.798374551e-07
4.140554794e-07
1.879879102e-07
4.269711246e-07
1.96454469e-07
4.393781869e-07
2.053199162e-07
4.507253241e-07
2.145281637e-07
4.630481905e-07
2.241821089e-07
4.616748863e-07
2.2674807e-07
5.199079979e-07
2.179522783e-07
2.828840776e-07
1.748047606e-06
2.66188863e-10
5.774503976e-09
1.064373176e-09
1.731360538e-08
2.390667312e-09
2.886874082e-08
4.238482552e-09
4.045739178e-08
6.598351475e-09
5.209363897e-08
9.45797068e-09
6.379111746e-08
1.280232939e-08
7.556298539e-08
1.661379951e-08
8.742195009e-08
2.087222952e-08
9.938024078e-08
2.555506138e-08
1.114494794e-07
3.063747606e-08
1.236405436e-07
3.609256975e-08
1.359633978e-07
4.189156825e-08
1.48426899e-07
4.800408519e-08
1.610385789e-07
5.439842865e-08
1.738044055e-07
6.104196003e-08
1.867285248e-07
6.790150888e-08
1.998129851e-07
7.494384621e-08
2.130574457e-07
8.213621858e-08
2.264588727e-07
8.944694406e-08
2.400112215e-07
9.684607078e-08
2.537051077e-07
1.043060981e-07
2.675274617e-07
1.118027592e-07
2.814611615e-07
1.193158631e-07
2.954846324e-07
1.268301827e-07
3.095713887e-07
1.343363988e-07
3.236894267e-07
1.418321903e-07
3.378005111e-07
1.493231714e-07
3.518595243e-07
1.568238827e-07
3.658129772e-07
1.643587749e-07
3.795973477e-07
1.719632311e-07
3.931370892e-07
1.796822213e-07
4.063428249e-07
1.875633902e-07
4.190961392e-07
1.956580146e-07
4.312897942e-07
2.039629064e-07
4.424264853e-07
2.125521691e-07
4.544675321e-07
2.202877748e-07
4.5394121e-07
2.226475969e-07
5.111288692e-07
2.04142306e-07
2.842748522e-07
1.992899461e-06
2.683371377e-10
5.506343375e-09
1.073010304e-09
1.651018716e-08
2.40989324e-09
2.753391778e-08
4.272286633e-09
3.85978262e-08
6.650653395e-09
4.971885266e-08
9.532610832e-09
6.09134463e-08
1.290303512e-08
7.219750075e-08
1.674413854e-08
8.358637379e-08
2.103555837e-08
9.509486392e-08
2.575446501e-08
1.067370531e-07
3.087569872e-08
1.185261436e-07
3.637193817e-08
1.304742571e-07
4.221390725e-08
1.42592202e-07
4.837062583e-08
1.548892126e-07
5.48097093e-08
1.67372661e-07
6.149772125e-08
1.800477463e-07
6.840058239e-08
1.929171621e-07
7.548403859e-08
2.05980747e-07
8.271418947e-08
2.192351188e-07
9.005807805e-08
2.326732964e-07
9.748434097e-08
2.462843099e-07
1.049639169e-07
2.600527969e-07
1.124708092e-07
2.739585807e-07
1.199828964e-07
2.879762224e-07
1.274827668e-07
3.020745381e-07
1.349585579e-07
3.162159873e-07
1.424049171e-07
3.303558343e-07
1.498238069e-07
3.444416657e-07
1.572251293e-07
3.584120665e-07
1.646272059e-07
3.721951124e-07
1.720569776e-07
3.857066507e-07
1.795494422e-07
3.988492394e-07
1.871389802e-07
4.115049938e-07
1.948597863e-07
4.235671243e-07
2.026695739e-07
4.346139012e-07
2.108083556e-07
4.46330019e-07
2.175431126e-07
4.471909987e-07
2.228652677e-07
5.008318606e-07
1.948886374e-07
2.929664217e-07
2.228403939e-06
2.708725122e-10
5.235624963e-09
1.083237667e-09
1.569913886e-08
2.432785885e-09
2.618651489e-08
4.312712478e-09
3.672084296e-08
6.713385424e-09
4.732190606e-08
9.622314371e-09
5.80089791e-08
1.302423202e-08
6.880072683e-08
1.690115765e-08
7.971520678e-08
2.123247513e-08
9.07698468e-08
2.599503049e-08
1.019812598e-07
3.116325778e-08
1.133650542e-07
3.67093375e-08
1.249356004e-07
4.260339371e-08
1.367057604e-07
4.881373559e-08
1.486865811e-07
5.530714848e-08
1.608869582e-07
6.204923888e-08
1.733132706e-07
6.900483673e-08
1.859689913e-07
7.61384574e-08
1.988542773e-07
8.34148246e-08
2.119655435e-07
9.079945413e-08
2.252950239e-07
9.825929623e-08
2.388303221e-07
1.057634328e-07
2.525539533e-07
1.132838229e-07
2.664428737e-07
1.207960857e-07
2.804679952e-07
1.282802965e-07
2.945936893e-07
1.357217453e-07
3.087772137e-07
1.431117209e-07
3.229678413e-07
1.504483241e-07
3.371063676e-07
1.57736762e-07
3.511242843e-07
1.649895718e-07
3.649423559e-07
1.722264122e-07
3.784693314e-07
1.794733175e-07
3.916014127e-07
1.867580195e-07
4.042188548e-07
1.941075014e-07
4.162158897e-07
2.014776517e-07
4.272406264e-07
2.092252094e-07
4.385858611e-07
2.154457192e-07
4.409460677e-07
2.232268385e-07
4.861597866e-07
1.841344659e-07
3.094126199e-07
2.456032567e-06
2.738129354e-10
4.961936211e-09
1.095108892e-09
1.487920486e-08
2.459425277e-09
2.482440077e-08
4.359861089e-09
3.4823426e-08
6.786676505e-09
4.489891139e-08
9.727252547e-09
5.507297708e-08
1.31661528e-08
6.536709916e-08
1.70851729e-08
7.58020895e-08
2.146340451e-08
8.639807333e-08
2.627731976e-08
9.717427602e-08
3.150088404e-08
1.081488066e-07
3.710570203e-08
1.193383915e-07
4.306120294e-08
1.307580644e-07
4.933487103e-08
1.424208153e-07
5.589252655e-08
1.543372033e-07
6.269866193e-08
1.66514936e-07
6.971683647e-08
1.789584219e-07
7.691013205e-08
1.916682995e-07
8.424167054e-08
2.046409492e-07
9.167519248e-08
2.178679931e-07
9.917569355e-08
2.313357878e-07
1.067101138e-07
2.450249134e-07
1.142480703e-07
2.589096593e-07
1.217626209e-07
2.729575076e-07
1.292310389e-07
2.871286261e-07
1.366355252e-07
3.013753573e-07
1.439638218e-07
3.156414425e-07
1.512100579e-07
3.298613048e-07
1.583748731e-07
3.439599423e-07
1.654654736e-07
3.578515698e-07
1.724953761e-07
3.714386555e-07
1.794838406e-07
3.846117064e-07
1.864530969e-07
3.972478848e-07
1.934271543e-07
4.09239763e-07
2.003674644e-07
4.202964642e-07
2.077132005e-07
4.312440457e-07
2.133067632e-07
4.353228841e-07
2.174029286e-07
4.694856728e-07
1.706932136e-07
3.350245412e-07
2.67601607e-06
2.771703241e-10
4.684860227e-09
1.108663549e-09
1.404912535e-08
2.489879997e-09
2.344545396e-08
4.413830926e-09
3.290258387e-08
6.87066309e-09
4.24460128e-08
9.847614737e-09
5.210073399e-08
1.332906017e-08
6.189108109e-08
1.729654501e-08
7.184068106e-08
2.172883412e-08
8.197243272e-08
2.660198035e-08
9.230826616e-08
3.188942199e-08
1.028688986e-07
3.756211401e-08
1.136735348e-07
4.358869929e-08
1.247395167e-07
4.993572605e-08
1.360819268e-07
5.656791727e-08
1.477131483e-07
6.34484967e-08
1.59642389e-07
7.053957543e-08
1.718751724e-07
7.780260103e-08
1.844128042e-07
8.519887022e-08
1.972518213e-07
9.269010374e-08
2.103834283e-07
1.0023908e-07
2.237929326e-07
1.078103203e-07
2.374591805e-07
1.153708159e-07
2.513540022e-07
1.228907818e-07
2.654416669e-07
1.303444222e-07
2.796783651e-07
1.377106394e-07
2.940117542e-07
1.449735712e-07
3.083803534e-07
1.521232749e-07
3.227126673e-07
1.591560848e-07
3.369274459e-07
1.660743938e-07
3.509328529e-07
1.72886396e-07
3.6462558e-07
1.796055738e-07
3.778909227e-07
1.862497667e-07
3.90601691e-07
1.928432658e-07
4.026439428e-07
1.993359156e-07
4.137993769e-07
2.0618893e-07
4.24394549e-07
2.11023713e-07
4.30454596e-07
2.115847692e-07
4.539117041e-07
1.609391398e-07
3.65581939e-07
2.888866997e-06
2.809534775e-10
4.403970673e-09
1.123933306e-09
1.320761659e-08
2.524211044e-09
2.204752174e-08
4.474717986e-09
3.095528736e-08
6.965486501e-09
3.995930559e-08
9.983603981e-09
4.908747753e-08
1.35132412e-08
5.836704675e-08
1.753567256e-08
6.782452309e-08
2.202930671e-08
7.748566326e-08
2.69697369e-08
8.737520525e-08
3.232982067e-08
9.751659539e-08
3.807979392e-08
1.079316546e-07
4.418742576e-08
1.186401877e-07
5.061822103e-08
1.296595388e-07
5.733567633e-08
1.410040983e-07
6.430159484e-08
1.526847679e-07
7.147646391e-08
1.647083891e-07
7.881989789e-08
1.770771445e-07
8.629114679e-08
1.897879405e-07
9.384966945e-08
2.028317797e-07
1.014557674e-07
2.161931351e-07
1.090712718e-07
2.298493331e-07
1.166602719e-07
2.437699559e-07
1.241898708e-07
2.57916271e-07
1.31630953e-07
2.722406991e-07
1.389589229e-07
2.866863906e-07
1.461542597e-07
3.011868064e-07
1.532029338e-07
3.156649593e-07
1.600972075e-07
3.300333313e-07
1.668352484e-07
3.441941916e-07
1.734207041e-07
3.580387555e-07
1.798618569e-07
3.714477291e-07
1.861714239e-07
3.842896638e-07
1.923771618e-07
3.964357123e-07
1.984162674e-07
4.077553441e-07
2.047336385e-07
4.180803342e-07
2.087920812e-07
4.263617521e-07
2.062524793e-07
4.391980241e-07
1.522810411e-07
3.994472441e-07
3.095418663e-06
2.851694885e-10
4.118833958e-09
1.140945124e-09
1.235337535e-08
2.562474164e-09
2.062842314e-08
4.542615701e-09
2.89784703e-08
7.071290552e-09
3.743483556e-08
1.013543278e-08
4.602836781e-08
1.371900161e-08
5.47892784e-08
1.780298503e-08
6.374703502e-08
2.236541202e-08
7.293034472e-08
2.738138187e-08
8.236686753e-08
3.282312336e-08
9.208291326e-08
3.866008923e-08
1.021030732e-07
4.485909225e-08
1.124497877e-07
5.138449058e-08
1.231428526e-07
5.819842879e-08
1.341988708e-07
6.526114023e-08
1.456306553e-07
7.253131504e-08
1.574465927e-07
7.996653666e-08
1.696499761e-07
8.75237877e-08
1.822383179e-07
9.516002359e-08
1.952026548e-07
1.028328103e-07
2.085268577e-07
1.105010182e-07
2.221869579e-07
1.181255612e-07
2.361505054e-07
1.256701658e-07
2.503759668e-07
1.331021526e-07
2.648121813e-07
1.403932118e-07
2.793979433e-07
1.475200312e-07
2.940617313e-07
1.544646668e-07
3.087212048e-07
1.612152929e-07
3.232827212e-07
1.677663305e-07
3.37642344e-07
1.741177477e-07
3.51685736e-07
1.802743058e-07
3.652888039e-07
1.862436827e-07
3.783171218e-07
1.920505958e-07
3.906259083e-07
1.976460771e-07
4.02155041e-07
2.034319968e-07
4.122965777e-07
2.068557514e-07
4.229034911e-07
2.012730891e-07
4.255659268e-07
1.444807041e-07
4.360102996e-07
3.296235838e-06
2.898243911e-10
3.829010254e-09
1.159722762e-09
1.148508107e-08
2.604720816e-09
1.918594996e-08
4.61761421e-09
2.696902842e-08
7.188218809e-09
3.486859586e-08
1.030331839e-08
4.291849216e-08
1.39466593e-08
5.115195868e-08
1.809893468e-08
5.960150313e-08
2.273777727e-08
6.829888332e-08
2.783776474e-08
7.727480651e-08
3.337045569e-08
8.655859418e-08
3.930446167e-08
9.617777862e-08
4.560556195e-08
1.061576277e-07
5.223686937e-08
1.165206005e-07
5.915905457e-08
1.272857404e-07
6.633063444e-08
1.384680144e-07
7.370833003e-08
1.500776066e-07
8.124749686e-08
1.62119179e-07
8.890262904e-08
1.745911108e-07
9.662793573e-08
1.874847304e-07
1.043779865e-07
2.007835567e-07
1.121084183e-07
2.144625639e-07
1.197766927e-07
2.284874881e-07
1.273428908e-07
2.428141892e-07
1.347705208e-07
2.573880923e-07
1.420273245e-07
2.721437726e-07
1.49086033e-07
2.870047341e-07
1.559248635e-07
3.018831734e-07
1.625279157e-07
3.166795588e-07
1.688859798e-07
3.312832934e-07
1.749957873e-07
3.455741299e-07
1.808596227e-07
3.59422463e-07
1.864829355e-07
3.726906799e-07
1.91888726e-07
3.852161201e-07
1.970580006e-07
3.969801168e-07
2.022710554e-07
4.070855227e-07
2.052111217e-07
4.199266436e-07
1.970968403e-07
4.12545055e-07
1.373136877e-07
4.755037098e-07
3.491789423e-06
2.949234231e-10
3.534054292e-09
1.180287313e-09
1.06013977e-08
2.650998142e-09
1.771786842e-08
4.699798901e-09
2.492381989e-08
7.316411238e-09
3.225652589e-08
1.048747753e-08
3.975286217e-08
1.419653719e-08
4.744916529e-08
1.842398764e-08
5.538107188e-08
2.314705646e-08
6.358349899e-08
2.833977981e-08
7.20903372e-08
3.397301215e-08
8.093408189e-08
4.001447268e-08
9.014539411e-08
4.642883609e-08
9.975258119e-08
5.317787646e-08
1.097809991e-07
6.022067246e-08
1.202523848e-07
6.751388069e-08
1.311841271e-07
7.501208247e-08
1.425884868e-07
8.266820821e-08
1.544717804e-07
9.04340407e-08
1.668335395e-07
9.826079676e-08
1.796656657e-07
1.06099784e-07
1.929515955e-07
1.139031262e-07
2.066654972e-07
1.216245482e-07
2.207715176e-07
1.292202047e-07
2.352230994e-07
1.366495235e-07
2.49962409e-07
1.438760595e-07
2.649199093e-07
1.508683752e-07
2.800141127e-07
1.5760071e-07
2.95151558e-07
1.640533542e-07
3.102266864e-07
1.70213261e-07
3.251222223e-07
1.760743315e-07
3.397110381e-07
1.816370639e-07
3.538569609e-07
1.869059649e-07
3.674182011e-07
1.91903447e-07
3.802142991e-07
1.966207939e-07
3.922566938e-07
2.013154447e-07
4.023920535e-07
2.038968755e-07
4.173062179e-07
1.935165113e-07
3.998242271e-07
1.306181693e-07
5.180841081e-07
3.682424149e-06
3.004710753e-10
3.233516103e-09
1.202657137e-09
9.700975707e-09
2.701348211e-09
1.62219216e-08
4.789248227e-09
2.283966719e-08
7.456000165e-09
2.959451209e-08
1.068812026e-08
3.652641284e-08
1.446895495e-08
4.367486757e-08
1.877861361e-08
5.107873724e-08
2.359391828e-08
5.877621442e-08
2.888835247e-08
6.680451988e-08
3.463204092e-08
7.519949953e-08
4.079176712e-08
8.399514872e-08
4.733103694e-08
9.322304686e-08
5.421019784e-08
1.029117044e-07
6.138662284e-08
1.130858303e-07
6.881496693e-08
1.237655308e-07
7.644750212e-08
1.349654512e-07
8.423453554e-08
1.466938757e-07
9.212491299e-08
1.589518026e-07
1.000666077e-07
1.717320129e-07
1.08007392e-07
1.850181528e-07
1.158955868e-07
1.987838524e-07
1.236808811e-07
2.129919026e-07
1.313152022e-07
2.275935215e-07
1.38753604e-07
2.425277634e-07
1.459552004e-07
2.577210473e-07
1.528841324e-07
2.730868756e-07
1.595104474e-07
2.885258994e-07
1.658106169e-07
3.039261648e-07
1.717680116e-07
3.191635003e-07
1.773738327e-07
3.34102942e-07
1.826273494e-07
3.486003283e-07
1.875330741e-07
3.625083991e-07
1.921107118e-07
3.756319028e-07
1.963430188e-07
3.880181567e-07
2.00556393e-07
3.981791176e-07
2.028192552e-07
4.150021348e-07
1.904118625e-07
3.871532135e-07
1.243349051e-07
5.638099756e-07
3.868487832e-06
3.064710096e-10
2.926941845e-09
1.226847405e-09
8.782454527e-09
2.755806646e-09
1.469583267e-08
4.886030882e-09
2.071336054e-08
7.607105477e-09
2.687839071e-08
1.090544296e-08
3.323400387e-08
1.476421972e-08
3.982292562e-08
1.916327421e-08
4.668734241e-08
2.407903226e-08
5.386884633e-08
2.948442343e-08
6.140814583e-08
3.534882662e-08
6.934462877e-08
4.163805494e-08
7.771584882e-08
4.831438876e-08
8.655691211e-08
5.533666732e-08
9.589976581e-08
6.266044876e-08
1.057723972e-07
7.02382479e-08
1.161979549e-07
7.80198583e-08
1.271938066e-07
8.595276407e-08
1.387705487e-07
9.39826444e-08
1.509309896e-07
1.020539712e-07
1.636691245e-07
1.101106985e-07
1.769691264e-07
1.180970405e-07
1.908043762e-07
1.259583299e-07
2.051365585e-07
1.336419334e-07
2.19914872e-07
1.410982166e-07
2.350753877e-07
1.482815642e-07
2.505405223e-07
1.551514194e-07
2.662187378e-07
1.616733296e-07
2.820046003e-07
1.678197775e-07
2.977792407e-07
1.735708541e-07
3.134109191e-07
1.789150012e-07
3.287562853e-07
1.838501704e-07
3.436616996e-07
1.883806111e-07
3.579734626e-07
1.925286675e-07
3.714787659e-07
1.962773695e-07
3.842628621e-07
1.999499728e-07
3.945063767e-07
2.017416625e-07
4.131640743e-07
1.869527149e-07
3.750094286e-07
1.185101233e-07
6.118842786e-07
4.050350347e-06
3.129258895e-10
2.613874795e-09
1.25286935e-09
7.844465476e-09
2.814400769e-09
1.313730938e-08
4.990202307e-09
1.854166287e-08
7.769829117e-09
2.410395262e-08
1.113962041e-08
2.987042349e-08
1.50826154e-08
3.588709197e-08
1.957840963e-08
4.21995761e-08
2.460305314e-08
4.885299898e-08
3.012893109e-08
5.589172506e-08
3.612467094e-08
6.335889062e-08
4.255509049e-08
7.129585105e-08
4.93811965e-08
7.974151692e-08
5.65602451e-08
8.873158114e-08
6.404587529e-08
9.829764485e-08
7.178832576e-08
1.084662557e-07
7.973474265e-08
1.192578746e-07
8.782958483e-08
1.306857881e-07
9.601513005e-08
1.427549904e-07
1.042320834e-07
1.554610565e-07
1.124202869e-07
1.687890318e-07
1.205195271e-07
1.827123635e-07
1.284704333e-07
1.971919069e-07
1.362154462e-07
2.12175064e-07
1.43699893e-07
2.275950356e-07
1.508730924e-07
2.433702652e-07
1.576894829e-07
2.594041138e-07
1.641098045e-07
2.755848666e-07
1.701022653e-07
2.917862067e-07
1.756434506e-07
3.078680376e-07
1.807192332e-07
3.236777566e-07
1.85325991e-07
3.390511935e-07
1.894676859e-07
3.538268918e-07
1.931700502e-07
3.677710964e-07
1.964083116e-07
3.810175755e-07
1.994952261e-07
3.914184388e-07
2.007009244e-07
4.118968469e-07
1.831487674e-07
3.638784965e-07
1.13052744e-07
6.616524906e-07
4.228292765e-06
3.198371419e-10
2.293856582e-09
1.280729242e-09
6.885635528e-09
2.877147244e-09
1.154404972e-08
5.101800453e-09
1.632131675e-08
7.94424873e-09
2.126695013e-08
1.139079691e-08
2.643039464e-08
1.542439053e-08
3.186101664e-08
2.002442351e-08
3.760797394e-08
2.516660317e-08
4.372006033e-08
3.082279158e-08
5.024547629e-08
3.696087085e-08
5.723132823e-08
4.354464953e-08
6.472303651e-08
5.053382205e-08
7.276361872e-08
5.788399419e-08
8.139285091e-08
6.554678677e-08
9.064631547e-08
7.347002904e-08
1.005543499e-07
8.159805063e-08
1.111409149e-07
8.987207975e-08
1.224224012e-07
9.823075128e-08
1.344064009e-07
1.066107274e-07
1.470904689e-07
1.149474304e-07
1.604608998e-07
1.231758814e-07
1.744915537e-07
1.312316343e-07
1.891427667e-07
1.390518215e-07
2.04360378e-07
1.465763167e-07
2.200748642e-07
1.537489702e-07
2.362007114e-07
1.605188497e-07
2.526360834e-07
1.668415574e-07
2.692627519e-07
1.726806331e-07
2.859464842e-07
1.780088496e-07
3.025379716e-07
1.828092333e-07
3.188743782e-07
1.870765461e-07
3.347798598e-07
1.908146541e-07
3.500835952e-07
1.940515189e-07
3.645286883e-07
1.967554099e-07
3.783061668e-07
1.992252342e-07
3.889464666e-07
1.998056621e-07
4.112209117e-07
1.795934219e-07
3.537177641e-07
1.078762968e-07
7.131382473e-07
4.402527595e-06
3.272046487e-10
1.966428734e-09
1.310427142e-09
5.904592004e-09
2.944049205e-09
9.913749345e-09
5.220840687e-09
1.404905347e-08
8.130410326e-09
1.836310608e-08
1.165907628e-08
2.290858401e-08
1.578974418e-08
2.773825638e-08
2.050166639e-08
3.290492215e-08
2.577025251e-08
3.846120119e-08
3.156687631e-08
4.445931983e-08
3.785869413e-08
5.095059151e-08
4.460850338e-08
5.798478633e-08
5.177465797e-08
6.560935762e-08
5.931105439e-08
7.386853269e-08
6.716720193e-08
8.280227693e-08
7.528839001e-08
9.244514539e-08
8.361596213e-08
1.028250446e-07
9.208770649e-08
1.139619229e-07
1.00638366e-07
1.258664224e-07
1.09200272e-07
1.385385165e-07
1.177041002e-07
1.519661654e-07
1.260797443e-07
1.661240228e-07
1.342572992e-07
1.809722382e-07
1.42168182e-07
1.964553449e-07
1.497463577e-07
2.125012901e-07
1.569297022e-07
2.290206687e-07
1.636614567e-07
2.459063008e-07
1.698916797e-07
2.630331634e-07
1.755788328e-07
2.802586435e-07
1.80691421e-07
2.974234115e-07
1.852093584e-07
3.143532381e-07
1.891255126e-07
3.308593903e-07
1.924437055e-07
3.467598967e-07
1.951950864e-07
3.617715728e-07
1.973452108e-07
3.761479865e-07
1.991913347e-07
3.870971979e-07
1.99125962e-07
4.11135535e-07
1.762960997e-07
3.446549501e-07
1.029929902e-07
7.663250296e-07
4.573283115e-06
3.350263803e-10
1.631134591e-09
1.341955416e-09
4.899968386e-09
3.015092923e-09
8.244110728e-09
5.347309722e-09
1.17216049e-08
8.328316535e-09
1.538812851e-08
1.194450833e-08
1.9299613e-08
1.617881493e-08
2.351228142e-08
2.101041876e-08
2.808266706e-08
2.641449688e-08
3.306737986e-08
3.236198627e-08
3.852287379e-08
3.881935148e-08
4.450492418e-08
4.574838975e-08
5.106795851e-08
5.310609786e-08
5.826422211e-08
6.084461326e-08
6.614279485e-08
6.891124664e-08
7.474846394e-08
7.724862005e-08
8.412047027e-08
8.579492062e-08
9.42911548e-08
9.448428261e-08
1.052845206e-07
1.032472992e-07
1.171147554e-07
1.120116697e-07
1.297847339e-07
1.207029791e-07
1.4328454e-07
1.292456086e-07
1.575900442e-07
1.375637821e-07
1.726615679e-07
1.45582749e-07
1.884426363e-07
1.532300906e-07
2.048588843e-07
1.604371668e-07
2.218171491e-07
1.67140775e-07
2.392048361e-07
1.732848977e-07
2.568897613e-07
1.788224379e-07
2.747204161e-07
1.837171388e-07
2.925266549e-07
1.879454143e-07
3.101215969e-07
1.914981957e-07
3.273020543e-07
1.943794981e-07
3.438727382e-07
1.966215948e-07
3.595234552e-07
1.982003777e-07
3.7456085e-07
1.994045795e-07
3.858883628e-07
1.988900307e-07
4.115607612e-07
1.737427773e-07
3.367299888e-07
9.840481782e-08
8.211687611e-07
4.740823287e-06
3.432979848e-10
1.287521628e-09
1.37529703e-09
3.870411415e-09
3.090244002e-09
6.532854508e-09
5.481159197e-09
9.335717989e-09
8.537919404e-09
1.23377267e-08
1.224707515e-08
1.559807461e-08
1.659166055e-08
1.917648795e-08
2.155087083e-08
2.313332538e-08
2.709973384e-08
2.752935013e-08
3.320882468e-08
3.242545395e-08
3.98439653e-08
3.78821545e-08
4.696597958e-08
4.395886673e-08
5.453050276e-08
5.071301532e-08
6.24878735e-08
5.81989692e-08
7.078312331e-08
6.646681713e-08
7.935608257e-08
7.556099766e-08
8.814161072e-08
8.55188217e-08
9.706996907e-08
9.636889194e-08
1.060673338e-07
1.081294858e-07
1.150564566e-07
1.208069095e-07
1.239574705e-07
1.343938759e-07
1.326888432e-07
1.488679337e-07
1.41168477e-07
1.641899855e-07
1.493149532e-07
1.803028959e-07
1.570489306e-07
1.971302423e-07
1.642946987e-07
2.145752545e-07
1.709819383e-07
2.325199699e-07
1.770477891e-07
2.508247717e-07
1.824389651e-07
2.693286041e-07
1.8711388e-07
2.878496489e-07
1.910449314e-07
3.061870633e-07
1.942209148e-07
3.241213313e-07
1.966466557e-07
3.414408934e-07
1.983556615e-07
3.578081468e-07
1.993411496e-07
3.735665121e-07
1.998631942e-07
3.853610253e-07
1.987133215e-07
4.125187865e-07
1.707705786e-07
3.298980378e-07
9.407262414e-08
8.776058641e-07
4.905386254e-06
3.520122809e-10
9.351442967e-10
1.410423527e-09
2.814589708e-09
3.169442934e-09
4.777733195e-09
5.622298083e-09
6.888172294e-09
8.759109148e-09
9.207630125e-09
1.256667608e-08
1.179855446e-08
1.702823421e-08
1.472422037e-08
2.212309582e-08
1.804889664e-08
2.782624016e-08
2.18376654e-08
3.410796895e-08
2.615607901e-08
4.093353771e-08
3.106969015e-08
4.826284081e-08
3.664326343e-08
5.605016326e-08
4.293982283e-08
6.424401544e-08
5.001950353e-08
7.278707628e-08
5.793821933e-08
8.161626272e-08
6.674616666e-08
9.066293362e-08
7.648621285e-08
9.98532525e-08
8.719215711e-08
1.091087009e-07
9.88869631e-08
1.183467539e-07
1.115809507e-07
1.274817131e-07
1.252700167e-07
1.364257072e-07
1.399338962e-07
1.450898371e-07
1.555345363e-07
1.533854805e-07
1.72014544e-07
1.612257727e-07
1.892957608e-07
1.685272788e-07
2.07278011e-07
1.752118819e-07
2.258380395e-07
1.812090012e-07
2.448287202e-07
1.864582195e-07
2.640788637e-07
1.909118693e-07
2.833939317e-07
1.945376767e-07
3.025577146e-07
1.973218022e-07
3.21332336e-07
1.992699252e-07
3.394864808e-07
2.004171719e-07
3.566544308e-07
2.007787815e-07
3.731958825e-07
2.006030825e-07
3.855311084e-07
1.986750118e-07
4.141082158e-07
1.67984712e-07
3.241827833e-07
8.994465289e-08
9.356258043e-07
5.067126739e-06
3.611586011e-10
5.73567526e-10
1.447292505e-09
1.731204238e-09
3.252599611e-09
2.976547854e-09
5.770583185e-09
4.375801661e-09
8.991698635e-09
5.99361378e-09
1.290310694e-08
7.895656472e-09
1.748836259e-08
1.014879525e-08
2.272701762e-08
1.282128657e-08
2.859413626e-08
1.598268509e-08
3.505984134e-08
1.970346965e-08
4.208891933e-08
2.405451483e-08
4.964040477e-08
2.910632542e-08
5.76672606e-08
3.49279859e-08
6.611615639e-08
4.158591571e-08
7.492735199e-08
4.914243105e-08
8.403473173e-08
5.765409893e-08
9.336597849e-08
6.716998584e-08
1.02842925e-07
7.772974179e-08
1.123820701e-07
8.936166842e-08
1.218952687e-07
1.020807369e-07
1.312905922e-07
1.158866377e-07
1.404733808e-07
1.307618521e-07
1.493474257e-07
1.466698933e-07
1.578163306e-07
1.635535763e-07
1.657850643e-07
1.813334006e-07
1.731617267e-07
1.999060849e-07
1.7985959e-07
2.191432293e-07
1.85799473e-07
2.388901904e-07
1.909126408e-07
2.589653635e-07
1.951442155e-07
2.791603865e-07
1.984563309e-07
2.992420684e-07
2.008317789e-07
3.189519553e-07
2.022763721e-07
3.380354824e-07
2.028276665e-07
3.560965634e-07
2.025267174e-07
3.734877959e-07
2.016062326e-07
3.864452915e-07
1.988307526e-07
4.163178062e-07
1.653246082e-07
3.213726203e-07
8.599564144e-08
9.952280028e-07
5.226176478e-06
3.707220715e-10
2.023709535e-10
1.485844835e-09
6.190008693e-10
3.33958732e-09
1.127168013e-09
5.925808869e-09
1.795520058e-09
9.235407875e-09
2.691528568e-09
1.325603528e-08
3.884039472e-09
1.797172021e-08
5.443524246e-09
2.336238676e-08
7.442326727e-09
2.940333286e-08
9.954612935e-09
3.606466123e-08
1.305604197e-08
4.331077462e-08
1.682317175e-08
5.109993539e-08
2.13326352e-08
5.938384027e-08
2.666007038e-08
6.810731831e-08
3.287875403e-08
7.720816168e-08
4.0058031e-08
8.661710835e-08
4.826151677e-08
9.625798586e-08
5.754518523e-08
1.060480558e-07
6.795525249e-08
1.158985325e-07
7.952607131e-08
1.257152898e-07
9.227796033e-08
1.353997493e-07
1.062150731e-07
1.448499902e-07
1.213232489e-07
1.539619603e-07
1.375681505e-07
1.626308867e-07
1.548933352e-07
1.707528899e-07
1.732184341e-07
1.782268094e-07
1.92437474e-07
1.849563623e-07
2.124172065e-07
1.908527258e-07
2.329955593e-07
1.958376523e-07
2.539803861e-07
1.998474405e-07
2.751488135e-07
2.02837293e-07
2.962487818e-07
2.047855539e-07
3.169987799e-07
2.056973534e-07
3.371172313e-07
2.056121114e-07
3.561751688e-07
2.045857595e-07
3.745049218e-07
2.028358867e-07
3.881883674e-07
1.99020084e-07
4.192276874e-07
1.627657892e-07
3.205745903e-07
8.219039241e-08
1.056423173e-06
5.3826294e-06
3.806834818e-10
-1.788467291e-10
1.526003393e-09
-5.232160065e-10
3.430239084e-09
-7.724461036e-10
6.087699824e-09
-8.556490264e-10
9.489853145e-09
-7.026646236e-10
1.36249923e-08
-2.415505167e-10