/*--------------------------------*- C++ -*----------------------------------*\
| =========                 |                                                 |
| \\      /  F ield         | OpenFOAM: The Open Source CFD Toolbox           |
|  \\    /   O peration     | Version:  v1912                                 |
|   \\  /    A nd           | Website:  www.openfoam.com                      |
|    \\/     M anipulation  |                                                 |
\*---------------------------------------------------------------------------*/
FoamFile
{
    version     2.0;
    format      ascii;
    class       volScalarField;
    location    "0.8";
    object      T.gas;
}
// * * * * * * * * * * * * * * * * * * * * * * * * * * * * * * * * * * * * * //

dimensions      [0 0 0 1 0 0 0];


internalField   nonuniform List<scalar> 
4800
(
111.5402651
111.5402651
111.5402651
111.5402651
111.5402651
111.5402651
111.5402651
111.5402651
111.5402651
111.5402651
111.5402651
111.540265
111.540265
111.540265
111.540265
111.540265
111.5402649
111.5402649
111.5402649
111.5402649
111.5402649
111.5402648
111.5402648
111.5402648
111.5402648
111.5402647
111.5402647
111.5402647
111.5402647
111.5402648
111.5402634
111.5402722
111.5402226
111.5404555
111.539558
111.5423146
111.5357464
111.5475156
111.534968
111.538001
111.5402537
111.5402537
111.5402537
111.5402537
111.5402537
111.5402537
111.5402537
111.5402537
111.5402537
111.5402537
111.5402536
111.5402536
111.5402536
111.5402536
111.5402536
111.5402535
111.5402535
111.5402535
111.5402535
111.5402534
111.5402534
111.5402534
111.5402534
111.5402533
111.5402533
111.5402533
111.5402532
111.5402532
111.5402531
111.5402532
111.5402521
111.5402587
111.5402221
111.5403908
111.5397489
111.5417013
111.5370802
111.5453199
111.5378965
111.5380005
111.5402423
111.5402423
111.5402423
111.5402423
111.5402423
111.5402423
111.5402423
111.5402422
111.5402422
111.5402422
111.5402422
111.5402422
111.5402422
111.5402421
111.5402421
111.5402421
111.5402421
111.540242
111.540242
111.540242
111.5402419
111.5402419
111.5402419
111.5402418
111.5402418
111.5402417
111.5402417
111.5402416
111.5402415
111.5402415
111.5402408
111.540245
111.5402204
111.540337
111.5398746
111.5413526
111.5376288
111.5448234
111.5378872
111.5380024
111.5402309
111.5402309
111.5402309
111.5402309
111.5402309
111.5402308
111.5402308
111.5402308
111.5402308
111.5402308
111.5402308
111.5402307
111.5402307
111.5402307
111.5402307
111.5402306
111.5402306
111.5402306
111.5402305
111.5402305
111.5402305
111.5402304
111.5402304
111.5402303
111.5402303
111.5402302
111.5402301
111.5402301
111.54023
111.5402299
111.5402293
111.5402325
111.5402132
111.540306
111.53993
111.5411577
111.5379928
111.5442846
111.5377293
111.5380068
111.5402195
111.5402195
111.5402194
111.5402194
111.5402194
111.5402194
111.5402194
111.5402194
111.5402194
111.5402193
111.5402193
111.5402193
111.5402193
111.5402192
111.5402192
111.5402192
111.5402191
111.5402191
111.5402191
111.540219
111.540219
111.5402189
111.5402189
111.5402188
111.5402188
111.5402187
111.5402186
111.5402185
111.5402184
111.5402183
111.5402177
111.5402204
111.5402038
111.5402839
111.5399562
111.5410351
111.538237
111.5438338
111.5379257
111.5380041
111.540208
111.540208
111.540208
111.540208
111.540208
111.540208
111.540208
111.540208
111.5402079
111.5402079
111.5402079
111.5402079
111.5402078
111.5402078
111.5402078
111.5402077
111.5402077
111.5402076
111.5402076
111.5402076
111.5402075
111.5402075
111.5402074
111.5402073
111.5402073
111.5402072
111.5402071
111.540207
111.5402068
111.5402067
111.5402062
111.5402085
111.5401935
111.5402661
111.5399674
111.5409528
111.5384051
111.5434504
111.5380291
111.5380053
111.5401966
111.5401966
111.5401966
111.5401966
111.5401966
111.5401966
111.5401966
111.5401965
111.5401965
111.5401965
111.5401965
111.5401964
111.5401964
111.5401964
111.5401963
111.5401963
111.5401962
111.5401962
111.5401961
111.5401961
111.540196
111.540196
111.5401959
111.5401958
111.5401958
111.5401957
111.5401956
111.5401954
111.5401953
111.5401952
111.5401947
111.5401967
111.5401829
111.5402501
111.5399717
111.5408916
111.5385247
111.5431468
111.5379792
111.538004
111.5401852
111.5401852
111.5401852
111.5401852
111.5401852
111.5401852
111.5401851
111.5401851
111.5401851
111.5401851
111.540185
111.540185
111.540185
111.5401849
111.5401849
111.5401848
111.5401848
111.5401847
111.5401847
111.5401846
111.5401846
111.5401845
111.5401844
111.5401844
111.5401843
111.5401842
111.5401841
111.5401839
111.5401838
111.5401836
111.5401831
111.540185
111.5401722
111.5402349
111.5399735
111.5408358
111.5386514
111.5427809
111.5379684
111.5380011
111.5401738
111.5401738
111.5401738
111.5401738
111.5401738
111.5401737
111.5401737
111.5401737
111.5401737
111.5401736
111.5401736
111.5401736
111.5401735
111.5401735
111.5401734
111.5401734
111.5401733
111.5401733
111.5401732
111.5401732
111.5401731
111.5401731
111.540173
111.5401729
111.5401728
111.5401727
111.5401726
111.5401724
111.5401723
111.5401721
111.5401717
111.5401733
111.5401616
111.5402194
111.5399759
111.5407829
111.5387504
111.5425201
111.5379773
111.5380006
111.5401624
111.5401624
111.5401624
111.5401624
111.5401624
111.5401623
111.5401623
111.5401623
111.5401623
111.5401622
111.5401622
111.5401621
111.5401621
111.5401621
111.540162
111.540162
111.5401619
111.5401619
111.5401618
111.5401617
111.5401617
111.5401616
111.5401615
111.5401614
111.5401613
111.5401612
111.5401611
111.540161
111.5401608
111.5401606
111.5401602
111.5401616
111.5401511
111.5402035
111.5399807
111.5407225
111.5388541
111.5422982
111.5379852
111.5380023
111.540151
111.540151
111.540151
111.540151
111.540151
111.5401509
111.5401509
111.5401509
111.5401509
111.5401508
111.5401508
111.5401507
111.5401507
111.5401506
111.5401506
111.5401505
111.5401505
111.5401504
111.5401504
111.5401503
111.5401502
111.5401502
111.5401501
111.54015
111.5401499
111.5401498
111.5401497
111.5401495
111.5401494
111.5401492
111.5401488
111.54015
111.5401405
111.5401881
111.5399829
111.5406741
111.5389242
111.5421305
111.5379865
111.5380047
111.5401396
111.5401396
111.5401396
111.5401396
111.5401396
111.5401396
111.5401395
111.5401395
111.5401395
111.5401394
111.5401394
111.5401393
111.5401393
111.5401392
111.5401392
111.5401391
111.5401391
111.540139
111.5401389
111.5401389
111.5401388
111.5401387
111.5401386
111.5401386
111.5401385
111.5401384
111.5401382
111.5401381
111.5401379
111.5401378
111.5401374
111.5401384
111.54013
111.5401728
111.5399854
111.5406231
111.5389956
111.5419826
111.5379883
111.5380063
111.5401283
111.5401282
111.5401282
111.5401282
111.5401282
111.5401282
111.5401281
111.5401281
111.5401281
111.540128
111.540128
111.5401279
111.5401279
111.5401278
111.5401278
111.5401277
111.5401276
111.5401276
111.5401275
111.5401274
111.5401274
111.5401273
111.5401272
111.5401271
111.540127
111.5401269
111.5401268
111.5401267
111.5401265
111.5401263
111.540126
111.5401268
111.5401194
111.5401579
111.5399866
111.5405773
111.5390545
111.5417243
111.53799
111.5380066
111.5401169
111.5401169
111.5401169
111.5401168
111.5401168
111.5401168
111.5401168
111.5401167
111.5401167
111.5401166
111.5401166
111.5401165
111.5401165
111.5401164
111.5401163
111.5401163
111.5401162
111.5401162
111.5401161
111.540116
111.540116
111.5401159
111.5401158
111.5401157
111.5401156
111.5401155
111.5401154
111.5401153
111.5401151
111.5401149
111.5401146
111.5401153
111.5401087
111.5401432
111.5399871
111.5405335
111.5391091
111.5412855
111.5379897
111.538006
111.5401055
111.5401055
111.5401055
111.5401055
111.5401055
111.5401054
111.5401054
111.5401053
111.5401053
111.5401052
111.5401052
111.5401051
111.5401051
111.540105
111.5401049
111.5401049
111.5401048
111.5401047
111.5401047
111.5401046
111.5401045
111.5401045
111.5401044
111.5401043
111.5401042
111.5401041
111.540104
111.5401039
111.5401037
111.5401036
111.5401033
111.5401039
111.540098
111.5401289
111.5399869
111.5404913
111.5391602
111.5407437
111.5379891
111.5380049
111.5400942
111.5400942
111.5400942
111.5400941
111.5400941
111.5400941
111.540094
111.540094
111.5400939
111.5400939
111.5400938
111.5400937
111.5400937
111.5400936
111.5400935
111.5400935
111.5400934
111.5400933
111.5400933
111.5400932
111.5400931
111.5400931
111.540093
111.5400929
111.5400928
111.5400927
111.5400926
111.5400925
111.5400924
111.5400922
111.540092
111.5400925
111.5400873
111.5401149
111.5399858
111.5404515
111.539206
111.540186
111.5379888
111.5380036
111.5400828
111.5400828
111.5400828
111.5400828
111.5400828
111.5400827
111.5400827
111.5400826
111.5400826
111.5400825
111.5400824
111.5400824
111.5400823
111.5400822
111.5400822
111.5400821
111.540082
111.5400819
111.5400819
111.5400818
111.5400817
111.5400817
111.5400816
111.5400815
111.5400814
111.5400814
111.5400813
111.5400812
111.540081
111.5400809
111.5400807
111.5400811
111.5400765
111.5401011
111.5399842
111.5404124
111.5392514
111.5396654
111.5379888
111.5380022
111.5400715
111.5400715
111.5400715
111.5400715
111.5400714
111.5400714
111.5400713
111.5400713
111.5400712
111.5400711
111.5400711
111.540071
111.5400709
111.5400708
111.5400708
111.5400707
111.5400706
111.5400705
111.5400705
111.5400704
111.5400703
111.5400703
111.5400702
111.5400701
111.5400701
111.54007
111.5400699
111.5400698
111.5400697
111.5400696
111.5400694
111.5400697
111.5400658
111.5400875
111.5399823
111.5403739
111.5392954
111.539205
111.5379893
111.5380008
111.5400602
111.5400602
111.5400602
111.5400601
111.5400601
111.5400601
111.54006
111.5400599
111.5400599
111.5400598
111.5400597
111.5400596
111.5400596
111.5400595
111.5400594
111.5400593
111.5400592
111.5400592
111.5400591
111.540059
111.540059
111.5400589
111.5400588
111.5400588
111.5400587
111.5400586
111.5400586
111.5400585
111.5400584
111.5400583
111.5400581
111.5400584
111.540055
111.5400741
111.5399796
111.5403378
111.5393348
111.5388308
111.5379897
111.5379995
111.5400489
111.5400489
111.5400489
111.5400488
111.5400488
111.5400487
111.5400487
111.5400486
111.5400485
111.5400485
111.5400484
111.5400483
111.5400482
111.5400481
111.540048
111.5400479
111.5400478
111.5400478
111.5400477
111.5400476
111.5400476
111.5400475
111.5400474
111.5400474
111.5400473
111.5400473
111.5400472
111.5400472
111.5400471
111.540047
111.5400469
111.5400471
111.5400441
111.540061
111.5399764
111.5403025
111.5393747
111.5384863
111.53799
111.5379988
111.5400376
111.5400376
111.5400376
111.5400375
111.5400375
111.5400374
111.5400374
111.5400373
111.5400372
111.5400371
111.540037
111.5400369
111.5400368
111.5400367
111.5400366
111.5400366
111.5400365
111.5400364
111.5400363
111.5400362
111.5400362
111.5400361
111.5400361
111.540036
111.540036
111.540036
111.5400359
111.5400359
111.5400358
111.5400357
111.5400356
111.5400358
111.5400333
111.540048
111.5399726
111.5402688
111.5394115
111.5381915
111.5379905
111.5379989
111.5400264
111.5400263
111.5400263
111.5400263
111.5400262
111.5400262
111.5400261
111.540026
111.5400259
111.5400258
111.5400257
111.5400256
111.5400255
111.5400254
111.5400253
111.5400252
111.5400251
111.540025
111.5400249
111.5400249
111.5400248
111.5400247
111.5400247
111.5400247
111.5400246
111.5400246
111.5400246
111.5400246
111.5400245
111.5400245
111.5400244
111.5400246
111.5400225
111.5400352
111.5399685
111.5402364
111.5394452
111.537993
111.5379914
111.5379996
111.5400151
111.5400151
111.5400151
111.540015
111.540015
111.5400149
111.5400148
111.5400147
111.5400146
111.5400145
111.5400144
111.5400143
111.5400142
111.540014
111.5400139
111.5400138
111.5400137
111.5400136
111.5400135
111.5400135
111.5400134
111.5400134
111.5400133
111.5400133
111.5400133
111.5400133
111.5400133
111.5400133
111.5400133
111.5400132
111.5400132
111.5400133
111.5400116
111.5400224
111.5399641
111.5402042
111.5394795
111.5379879
111.5379926
111.5380007
111.5400039
111.5400039
111.5400038
111.5400038
111.5400037
111.5400036
111.5400036
111.5400035
111.5400033
111.5400032
111.5400031
111.540003
111.5400028
111.5400027
111.5400026
111.5400025
111.5400024
111.5400023
111.5400022
111.5400021
111.540002
111.540002
111.540002
111.5400019
111.5400019
111.5400019
111.540002
111.540002
111.540002
111.540002
111.540002
111.5400021
111.5400008
111.5400098
111.5399594
111.540173
111.5395117
111.5379817
111.537994
111.5380019
111.5399927
111.5399927
111.5399926
111.5399926
111.5399925
111.5399924
111.5399923
111.5399922
111.5399921
111.5399919
111.5399918
111.5399917
111.5399915
111.5399914
111.5399912
111.5399911
111.539991
111.5399909
111.5399908
111.5399907
111.5399906
111.5399906
111.5399906
111.5399906
111.5399906
111.5399906
111.5399906
111.5399907
111.5399907
111.5399908
111.5399908
111.5399909
111.5399899
111.5399973
111.5399542
111.5401432
111.5395411
111.5379738
111.537995
111.5380026
111.5399815
111.5399815
111.5399814
111.5399814
111.5399813
111.5399812
111.5399811
111.539981
111.5399808
111.5399807
111.5399805
111.5399804
111.5399802
111.5399801
111.5399799
111.5399798
111.5399796
111.5399795
111.5399794
111.5399793
111.5399793
111.5399792
111.5399792
111.5399792
111.5399792
111.5399793
111.5399793
111.5399794
111.5399795
111.5399795
111.5399796
111.5399797
111.5399791
111.5399849
111.5399488
111.5401143
111.5395694
111.5380501
111.5379951
111.5380025
111.5399703
111.5399703
111.5399703
111.5399702
111.5399701
111.53997
111.5399699
111.5399698
111.5399696
111.5399694
111.5399693
111.5399691
111.5399689
111.5399687
111.5399686
111.5399684
111.5399683
111.5399681
111.539968
111.5399679
111.5399679
111.5399678
111.5399678
111.5399678
111.5399679
111.5399679
111.539968
111.5399681
111.5399682
111.5399683
111.5399684
111.5399686
111.5399682
111.5399726
111.539943
111.5400864
111.5395969
111.5380414
111.5379955
111.5380021
111.5399592
111.5399592
111.5399592
111.5399591
111.539959
111.5399589
111.5399587
111.5399586
111.5399584
111.5399582
111.539958
111.5399578
111.5399576
111.5399574
111.5399572
111.5399571
111.5399569
111.5399568
111.5399566
111.5399565
111.5399565
111.5399564
111.5399564
111.5399564
111.5399565
111.5399566
111.5399567
111.5399568
111.5399569
111.5399571
111.5399573
111.5399574
111.5399574
111.5399604
111.5399369
111.5400596
111.5396222
111.5380298
111.5379959
111.5380017
111.5399481
111.5399481
111.5399481
111.539948
111.5399479
111.5399477
111.5399476
111.5399474
111.5399472
111.539947
111.5399468
111.5399466
111.5399464
111.5399461
111.5399459
111.5399457
111.5399455
111.5399454
111.5399452
111.5399451
111.5399451
111.539945
111.539945
111.539945
111.5399451
111.5399452
111.5399453
111.5399455
111.5399457
111.5399459
111.5399461
111.5399462
111.5399465
111.5399483
111.5399306
111.5400337
111.5396454
111.53802
111.5379968
111.5380015
111.5399371
111.5399371
111.539937
111.5399369
111.5399368
111.5399366
111.5399365
111.5399363
111.5399361
111.5399358
111.5399356
111.5399354
111.5399351
111.5399349
111.5399346
111.5399344
111.5399342
111.539934
111.5399339
111.5399337
111.5399336
111.5399336
111.5399336
111.5399336
111.5399337
111.5399338
111.5399339
111.5399341
111.5399344
111.5399346
111.5399349
111.539935
111.5399357
111.5399361
111.5399242
111.5400086
111.5396668
111.5380088
111.5379981
111.5380016
111.5399261
111.539926
111.539926
111.5399259
111.5399257
111.5399256
111.5399254
111.5399252
111.5399249
111.5399247
111.5399244
111.5399241
111.5399239
111.5399236
111.5399233
111.5399231
111.5399228
111.5399226
111.5399225
111.5399223
111.5399222
111.5399221
111.5399221
111.5399222
111.5399222
111.5399224
111.5399226
111.5399228
111.5399231
111.5399233
111.5399237
111.5399238
111.5399249
111.539924
111.5399177
111.539984
111.5396867
111.5379954
111.5379998
111.538002
111.5399151
111.5399151
111.539915
111.5399149
111.5399147
111.5399145
111.5399143
111.5399141
111.5399138
111.5399136
111.5399133
111.5399129
111.5399126
111.5399123
111.539912
111.5399117
111.5399115
111.5399112
111.539911
111.5399109
111.5399108
111.5399107
111.5399107
111.5399107
111.5399108
111.5399109
111.5399111
111.5399114
111.5399117
111.5399121
111.5399125
111.5399126
111.5399142
111.5399118
111.5399112
111.5399598
111.5397056
111.5379807
111.5380014
111.5380025
111.5399041
111.5399041
111.539904
111.5399039
111.5399038
111.5399036
111.5399033
111.5399031
111.5399028
111.5399025
111.5399021
111.5399018
111.5399014
111.5399011
111.5399008
111.5399004
111.5399001
111.5398999
111.5398996
111.5398994
111.5398993
111.5398992
111.5398992
111.5398992
111.5398993
111.5398995
111.5398997
111.5399
111.5399004
111.5399008
111.5399013
111.5399014
111.5399034
111.5398995
111.5399049
111.5399358
111.5397231
111.5379631
111.5380028
111.5380023
111.5398933
111.5398932
111.5398932
111.539893
111.5398928
111.5398926
111.5398924
111.5398921
111.5398917
111.5398914
111.539891
111.5398906
111.5398903
111.5398899
111.5398895
111.5398891
111.5398888
111.5398885
111.5398882
111.539888
111.5398878
111.5398877
111.5398877
111.5398877
111.5398878
111.539888
111.5398882
111.5398885
111.5398889
111.5398894
111.53989
111.5398901
111.5398928
111.5398871
111.5398988
111.5399121
111.5397403
111.5381164
111.5379988
111.5380012
111.5398824
111.5398824
111.5398823
111.5398822
111.539882
111.5398817
111.5398814
111.5398811
111.5398808
111.5398804
111.53988
111.5398795
111.5398791
111.5398787
111.5398782
111.5398778
111.5398774
111.5398771
111.5398768
111.5398765
111.5398763
111.5398762
111.5398761
111.5398761
111.5398762
111.5398764
111.5398767
111.5398771
111.5398775
111.539878
111.5398788
111.5398788
111.5398822
111.5398744
111.5398931
111.5398883
111.5397568
111.5381051
111.5379987
111.5380001
111.5398717
111.5398716
111.5398715
111.5398714
111.5398712
111.5398709
111.5398706
111.5398702
111.5398698
111.5398694
111.5398689
111.5398684
111.539868
111.5398675
111.539867
111.5398665
111.5398661
111.5398657
111.5398653
111.539865
111.5398648
111.5398646
111.5398646
111.5398646
111.5398646
111.5398648
111.5398651
111.5398655
111.539866
111.5398666
111.5398674
111.5398673
111.5398717
111.5398614
111.5398879
111.539864
111.5397727
111.538091
111.5379993
111.5379991
111.539861
111.5398609
111.5398608
111.5398606
111.5398604
111.5398601
111.5398598
111.5398594
111.5398589
111.5398584
111.5398579
111.5398574
111.5398569
111.5398563
111.5398558
111.5398553
111.5398548
111.5398543
111.5398539
111.5398536
111.5398533
111.5398531
111.539853
111.5398529
111.539853
111.5398532
111.5398535
111.5398539
111.5398544
111.539855
111.5398561
111.5398558
111.5398613
111.5398479
111.5398832
111.5398398
111.5397874
111.5380786
111.5380008
111.5379983
111.5398503
111.5398503
111.5398502
111.53985
111.5398497
111.5398494
111.539849
111.5398486
111.5398481
111.5398475
111.539847
111.5398464
111.5398458
111.5398452
111.5398446
111.539844
111.5398434
111.5398429
111.5398425
111.539842
111.5398417
111.5398415
111.5398413
111.5398413
111.5398413
111.5398415
111.5398418
111.5398422
111.5398428
111.5398434
111.5398446
111.5398441
111.5398511
111.539834
111.5398792
111.5398156
111.5398003
111.538067
111.5380033
111.5379978
111.5398398
111.5398397
111.5398396
111.5398394
111.5398391
111.5398387
111.5398383
111.5398378
111.5398373
111.5398367
111.5398361
111.5398354
111.5398348
111.5398341
111.5398334
111.5398328
111.5398321
111.5398315
111.539831
111.5398305
111.5398301
111.5398298
111.5398296
111.5398295
111.5398296
111.5398297
111.53983
111.5398304
111.539831
111.5398317
111.5398331
111.5398321
111.5398412
111.5398194
111.5398755
111.539792
111.5398107
111.5380542
111.5380067
111.5379978
111.5398293
111.5398293
111.5398291
111.5398289
111.5398286
111.5398282
111.5398277
111.5398272
111.5398266
111.5398259
111.5398252
111.5398245
111.5398238
111.539823
111.5398223
111.5398215
111.5398208
111.5398201
111.5398195
111.539819
111.5398185
111.5398182
111.5398179
111.5398178
111.5398178
111.5398179
111.5398182
111.5398186
111.5398192
111.5398198
111.5398216
111.5398198
111.5398315
111.5398042
111.5398719
111.5397699
111.5398174
111.5380322
111.5380105
111.5379986
111.5398189
111.5398189
111.5398187
111.5398184
111.5398181
111.5398177
111.5398172
111.5398166
111.5398159
111.5398152
111.5398145
111.5398137
111.5398128
111.539812
111.5398112
111.5398103
111.5398095
111.5398088
111.5398081
111.5398074
111.5398069
111.5398065
111.5398062
111.539806
111.5398059
111.539806
111.5398063
111.5398066
111.5398073
111.5398078
111.53981
111.5398071
111.5398222
111.5397883
111.5398683
111.5397499
111.5398192
111.5380212
111.5380137
111.5380001
111.5398086
111.5398086
111.5398084
111.5398081
111.5398077
111.5398073
111.5398067
111.5398061
111.5398054
111.5398046
111.5398038
111.5398029
111.539802
111.539801
111.5398001
111.5397992
111.5397983
111.5397974
111.5397966
111.5397959
111.5397953
111.5397947
111.5397944
111.5397941
111.539794
111.5397941
111.5397943
111.5397946
111.5397952
111.5397955
111.5397984
111.5397938
111.5398132
111.5397717
111.5398637
111.5397331
111.5398155
111.5380182
111.538016
111.5380021
111.5397984
111.5397983
111.5397982
111.5397978
111.5397974
111.5397969
111.5397963
111.5397956
111.5397949
111.539794
111.5397931
111.5397921
111.5397911
111.5397901
111.5397891
111.539788
111.539787
111.539786
111.5397851
111.5397843
111.5397836
111.539783
111.5397825
111.5397822
111.5397821
111.5397821
111.5397822
111.5397825
111.5397831
111.5397829
111.5397869
111.5397796
111.5398046
111.539755
111.5398568
111.5397213
111.5398052
111.5379713
111.5380178
111.5380043
111.5397883
111.5397882
111.539788
111.5397877
111.5397873
111.5397867
111.5397861
111.5397853
111.5397845
111.5397835
111.5397825
111.5397815
111.5397804
111.5397792
111.5397781
111.5397769
111.5397758
111.5397747
111.5397737
111.5397728
111.539772
111.5397713
111.5397708
111.5397704
111.5397703
111.5397702
111.5397703
111.5397704
111.5397712
111.5397699
111.539776
111.5397642
111.5397963
111.5397385
111.5398464
111.5397154
111.5397879
111.5379959
111.5380167
111.538006
111.5397783
111.5397783
111.539778
111.5397777
111.5397772
111.5397766
111.5397759
111.5397751
111.5397742
111.5397732
111.5397721
111.5397709
111.5397697
111.5397684
111.5397672
111.5397659
111.5397647
111.5397636
111.5397625
111.5397615
111.5397606
111.5397598
111.5397592
111.5397587
111.5397585
111.5397584
111.5397585
111.5397583
111.5397595
111.539756
111.5397667
111.5397472
111.5397886
111.5397231
111.5398322
111.5397134
111.5397667
111.5379094
111.5380171
111.5380069
111.5397685
111.5397684
111.5397681
111.5397678
111.5397672
111.5397666
111.5397659
111.539765
111.539764
111.5397629
111.5397617
111.5397604
111.5397591
111.5397578
111.5397565
111.5397552
111.5397539
111.5397527
111.5397514
111.53975
111.5397485
111.539747
111.5397458
111.539745
111.5397446
111.5397446
111.5397447
111.5397442
111.5397455
111.539739
111.5397607
111.5397307
111.5397837
111.5397157
111.5398098
111.5397238
111.5397341
111.5380288
111.5380106
111.5380067
111.5397587
111.5397586
111.5397584
111.539758
111.5397574
111.5397567
111.5397559
111.539755
111.5397539
111.5397527
111.5397515
111.5397502
111.5397488
111.5397475
111.5397461
111.5397446
111.5397428
111.5397403
111.5397371
111.539733
111.5397282
111.5397233
111.5397194
111.5397171
111.5397163
111.5397167
111.5397169
111.5397157
111.5397166
111.5397121
111.539745
111.5396781
111.5397549
111.5397256
111.5398036
111.5397093
111.5397282
111.5380143
111.5380061
111.5380064
111.5397491
111.539749
111.5397487
111.5397483
111.5397477
111.539747
111.5397461
111.5397451
111.539744
111.5397429
111.5397417
111.5397404
111.539739
111.5397373
111.5397346
111.5397305
111.5397244
111.5397156
111.5397039
111.5396893
111.539673
111.5396574
111.5396449
111.5396371
111.539635
111.5396373
111.5396397
111.5396394
111.5396397
111.5395506
111.5389204
111.5380154
111.5390919
111.5394512
111.5397927
111.5397743
111.5396665
111.5378766
111.5380054
111.5380065
111.5397396
111.5397395
111.5397392
111.5397388
111.5397382
111.5397375
111.5397366
111.5397357
111.5397347
111.5397337
111.5397324
111.5397304
111.539727
111.5397209
111.5397104
111.5396946
111.5396727
111.5396443
111.5396094
111.5395685
111.53952
111.5394599
111.5393912
111.5393544
111.5393803
111.5394249
111.5394532
111.5394516
111.5389331
111.5346645
111.5349961
111.5371615
111.5390012
111.539291
111.5392098
111.5399065
111.5396969
111.5379306
111.5379941
111.5380069
111.5397305
111.5397304
111.5397301
111.5397298
111.5397293
111.5397287
111.539728
111.5397272
111.539726
111.539724
111.5397199
111.5397118
111.5396969
111.5396719
111.5396338
111.5395831
111.5395215
111.5394473
111.5393385
111.539084
111.5384937
111.537816
111.5374943
111.5380586
111.5387072
111.5390128
111.5390618
111.5372855
111.5309747
111.5350341
111.5373968
111.5384878
111.5390225
111.5396327
111.5402788
111.5408337
111.5399619
111.5377788
111.5379886
111.5380078
111.5397224
111.5397223
111.5397222
111.5397219
111.5397215
111.5397209
111.5397197
111.5397173
111.5397125
111.5397026
111.5396835
111.5396462
111.5395675
111.53941
111.5391726
111.5389148
111.5386332
111.5380727
111.5364437
111.5333183
111.5320072
111.5329754
111.5352717
111.537648
111.5384689
111.5382089
111.5329768
111.5311346
111.5354009
111.5376717
111.5386749
111.5388311
111.5388575
111.5392225
111.5400705
111.5411422
111.5406605
111.5377765
111.53798
111.5380089
111.5397154
111.5397152
111.5397147
111.5397137
111.5397118
111.5397082
111.5397015
111.5396887
111.5396627
111.5395978
111.5393838
111.5386972
111.5372555
111.5354735
111.5342306
111.5335354
111.5323746
111.5300513
111.5303303
111.5324028
111.5345322
111.5361427
111.5381406
111.5389857
111.5369598
111.530873
111.5320691
111.5359916
111.538019
111.5387472
111.5388957
111.5387028
111.5386409
111.5387544
111.539673
111.5409322
111.5419189
111.53786
111.5379704
111.5380103
111.5397003
111.5396988
111.5396939
111.5396847
111.5396679
111.5396348
111.5395563
111.5393258
111.538593
111.5364484
111.5319496
111.5279018
111.5286555
111.5306115
111.5319467
111.5325112
111.5324095
111.5326257
111.5340188
111.5357111
111.536695
111.5382586
111.5386969
111.5372343
111.5352271
111.5339608
111.5366011
111.5381224
111.5387165
111.5392345
111.5387774
111.5385936
111.5386309
111.5388509
111.539333
111.5405643
111.541823
111.5380283
111.5379649
111.5380124
111.5393823
111.5393136
111.5390053
111.5383452
111.5372517
111.5355098
111.5325212
111.5280166
111.5249372
111.5268827
111.5290602
111.5311354
111.5328152
111.5339259
111.5344469
111.5344886
111.5345754
111.5353219
111.5364353
111.5371151
111.5379945
111.5384397
111.5378488
111.5373189
111.5359691
111.5371376
111.5381265
111.5384955
111.5389402
111.5388351
111.5387102
111.5387605
111.5388606
111.5390729
111.5394969
111.5401973
111.5414086
111.5380195
111.5379751
111.5380147
111.5280087
111.5260381
111.524486
111.5244888
111.5250463
111.5260544
111.5273176
111.5287486
111.5303124
111.5319285
111.5334605
111.5346987
111.5354952
111.5358678
111.5359159
111.535944
111.5363092
111.5369421
111.5374983
111.537771
111.5383457
111.5382127
111.5378816
111.5376725
111.537422
111.5379458
111.5381838
111.5382628
111.5383531
111.5384128
111.5386454
111.5387015
111.5386632
111.5386816
111.5389963
111.5397271
111.5407985
111.5379629
111.5379968
111.5380176
111.5302558
111.5299959
111.5299423
111.5302688
111.5308174
111.5315991
111.5324665
111.5334184
111.5344107
111.5353698
111.5361672
111.5366679
111.5369009
111.536918
111.5368967
111.5370667
111.5373878
111.5377306
111.5379608
111.5381034
111.5383731
111.5382677
111.5381132
111.5379893
111.537679
111.5377994
111.5377754
111.5378349
111.5379874
111.5381572
111.5382722
111.538315
111.5382931
111.5381644
111.5380957
111.538241
111.5385982
111.5380115
111.5380177
111.5380215
111.533616
111.5338047
111.5341197
111.5344253
111.5348361
111.5353266
111.5358124
111.5363262
111.5368394
111.5372574
111.5375124
111.5376113
111.5376286
111.5375893
111.5376513
111.5377931
111.5379389
111.5380696
111.5381736
111.5382356
111.5383826
111.5383261
111.5382753
111.5379587
111.5375502
111.5375482
111.5375134
111.5375977
111.5377382
111.5378855
111.5380145
111.5380916
111.5381126
111.5380933
111.5380244
111.5380161
111.5380375
111.538042
111.5380303
111.5380268
111.5359719
111.5364499
111.5367984
111.536951
111.5371919
111.5373973
111.5375822
111.5377551
111.5379062
111.5379845
111.5379941
111.5379995
111.5380231
111.5380469
111.5381063
111.5381497
111.5381418
111.5381354
111.5381675
111.5382274
111.5382847
111.5383059
111.5382915
111.5380087
111.5375846
111.5375577
111.5375166
111.5375242
111.537593
111.537684
111.5377898
111.5378951
111.537951
111.5380277
111.5380293
111.5380369
111.5380339
111.5380356
111.5380368
111.538034
111.5382269
111.5384509
111.5384163
111.5383546
111.538296
111.5382227
111.5381331
111.5380524
111.5380139
111.5380195
111.5380564
111.5380974
111.5381639
111.5382037
111.5382117
111.538178
111.5381042
111.5380455
111.5380286
111.538051
111.5381
111.5381422
111.5381503
111.5381347
111.5379829
111.5379288
111.5377011
111.5376436
111.5376434
111.5376318
111.5376595
111.5377339
111.5378354
111.5378951
111.5380049
111.5380394
111.5380505
111.538051
111.5380438
111.5380423
111.5392472
111.5392948
111.5390791
111.5388424
111.5386107
111.5383869
111.5382131
111.5381348
111.5380439
111.538034
111.5380489
111.5380632
111.5380713
111.5380689
111.538054
111.5380372
111.5380262
111.5380233
111.5380276
111.5380291
111.5380362
111.5380648
111.5380986
111.5381091
111.5381487
111.538166
111.5381584
111.5380756
111.5379339
111.5378461
111.5377503
111.5377354
111.5377409
111.5378566
111.5379296
111.5380288
111.5380443
111.5380619
111.5380478
111.5380469
111.5396873
111.5394694
111.5391853
111.5389323
111.5387045
111.5384935
111.5383196
111.5382057
111.538162
111.5381865
111.5382222
111.538256
111.5382552
111.5382158
111.5381685
111.5381359
111.5381371
111.5381768
111.5382421
111.5382988
111.5383204
111.5383134
111.5383049
111.5383032
111.538315
111.5384539
111.5385372
111.538546
111.5384576
111.5383006
111.5381572
111.5379359
111.5378973
111.5379146
111.5379422
111.5380466
111.538053
111.5380127
111.5380296
111.5380415
111.5396337
111.5392534
111.5390108
111.538905
111.5388656
111.5388522
111.538848
111.5388548
111.5388979
111.5389772