/*--------------------------------*- C++ -*----------------------------------*\
| =========                 |                                                 |
| \\      /  F ield         | OpenFOAM: The Open Source CFD Toolbox           |
|  \\    /   O peration     | Version:  v1912                                 |
|   \\  /    A nd           | Website:  www.openfoam.com                      |
|    \\/     M anipulation  |                                                 |
\*---------------------------------------------------------------------------*/
FoamFile
{
    version     2.0;
    format      ascii;
    class       volScalarField;
    location    "0.8";
    object      Tf.gasAndLiquid;
}
// * * * * * * * * * * * * * * * * * * * * * * * * * * * * * * * * * * * * * //

dimensions      [0 0 0 1 0 0 0];


internalField   nonuniform List<scalar> 
4800
(
111.5402651
111.5402651
111.5402651
111.5402651
111.5402651
111.5402651
111.5402651
111.5402651
111.5402651
111.5402651
111.5402651
111.540265
111.540265
111.540265
111.540265
111.540265
111.5402649
111.5402649
111.5402649
111.5402649
111.5402649
111.5402648
111.5402648
111.5402648
111.5402648
111.5402647
111.5402647
111.5402647
111.5402647
111.5402648
111.5402634
111.5402722
111.5402226
111.5404555
111.539558
111.5423146
111.5357464
111.5475156
111.5353933
111.538
111.5402537
111.5402537
111.5402537
111.5402537
111.5402537
111.5402537
111.5402537
111.5402537
111.5402537
111.5402537
111.5402536
111.5402536
111.5402536
111.5402536
111.5402536
111.5402535
111.5402535
111.5402535
111.5402535
111.5402534
111.5402534
111.5402534
111.5402534
111.5402533
111.5402533
111.5402533
111.5402532
111.5402532
111.5402531
111.5402532
111.5402521
111.5402587
111.5402221
111.5403908
111.5397489
111.5417013
111.5370802
111.54532
111.538
111.538
111.5402423
111.5402423
111.5402423
111.5402423
111.5402423
111.5402423
111.5402423
111.5402422
111.5402422
111.5402422
111.5402422
111.5402422
111.5402422
111.5402421
111.5402421
111.5402421
111.5402421
111.540242
111.540242
111.540242
111.5402419
111.5402419
111.5402419
111.5402418
111.5402418
111.5402417
111.5402417
111.5402416
111.5402415
111.5402415
111.5402408
111.540245
111.5402204
111.540337
111.5398746
111.5413526
111.5376288
111.5448234
111.538
111.538
111.5402309
111.5402309
111.5402309
111.5402309
111.5402309
111.5402308
111.5402308
111.5402308
111.5402308
111.5402308
111.5402308
111.5402307
111.5402307
111.5402307
111.5402307
111.5402306
111.5402306
111.5402306
111.5402305
111.5402305
111.5402305
111.5402304
111.5402304
111.5402303
111.5402303
111.5402302
111.5402301
111.5402301
111.54023
111.5402299
111.5402293
111.5402325
111.5402132
111.540306
111.53993
111.5411577
111.5379928
111.5442847
111.538
111.538
111.5402195
111.5402195
111.5402194
111.5402194
111.5402194
111.5402194
111.5402194
111.5402194
111.5402194
111.5402193
111.5402193
111.5402193
111.5402193
111.5402192
111.5402192
111.5402192
111.5402191
111.5402191
111.5402191
111.540219
111.540219
111.5402189
111.5402189
111.5402188
111.5402188
111.5402187
111.5402186
111.5402185
111.5402184
111.5402183
111.5402177
111.5402204
111.5402038
111.5402839
111.5399562
111.5410351
111.538237
111.5438339
111.538
111.538
111.540208
111.540208
111.540208
111.540208
111.540208
111.540208
111.540208
111.540208
111.5402079
111.5402079
111.5402079
111.5402079
111.5402078
111.5402078
111.5402078
111.5402077
111.5402077
111.5402076
111.5402076
111.5402076
111.5402075
111.5402075
111.5402074
111.5402073
111.5402073
111.5402072
111.5402071
111.540207
111.5402068
111.5402067
111.5402062
111.5402085
111.5401935
111.5402661
111.5399674
111.5409528
111.5384051
111.5434506
111.538
111.538
111.5401966
111.5401966
111.5401966
111.5401966
111.5401966
111.5401966
111.5401966
111.5401965
111.5401965
111.5401965
111.5401965
111.5401964
111.5401964
111.5401964
111.5401963
111.5401963
111.5401962
111.5401962
111.5401961
111.5401961
111.540196
111.540196
111.5401959
111.5401958
111.5401958
111.5401957
111.5401956
111.5401954
111.5401953
111.5401952
111.5401947
111.5401967
111.5401829
111.5402501
111.5399717
111.5408916
111.5385247
111.543147
111.538
111.538
111.5401852
111.5401852
111.5401852
111.5401852
111.5401852
111.5401852
111.5401851
111.5401851
111.5401851
111.5401851
111.540185
111.540185
111.540185
111.5401849
111.5401849
111.5401848
111.5401848
111.5401847
111.5401847
111.5401846
111.5401846
111.5401845
111.5401844
111.5401844
111.5401843
111.5401842
111.5401841
111.5401839
111.5401838
111.5401836
111.5401831
111.540185
111.5401722
111.5402349
111.5399735
111.5408358
111.5386514
111.5427812
111.538
111.538
111.5401738
111.5401738
111.5401738
111.5401738
111.5401738
111.5401737
111.5401737
111.5401737
111.5401737
111.5401736
111.5401736
111.5401736
111.5401735
111.5401735
111.5401734
111.5401734
111.5401733
111.5401733
111.5401732
111.5401732
111.5401731
111.5401731
111.540173
111.5401729
111.5401728
111.5401727
111.5401726
111.5401724
111.5401723
111.5401721
111.5401717
111.5401733
111.5401616
111.5402194
111.5399759
111.5407829
111.5387504
111.5425204
111.538
111.538
111.5401624
111.5401624
111.5401624
111.5401624
111.5401624
111.5401623
111.5401623
111.5401623
111.5401623
111.5401622
111.5401622
111.5401621
111.5401621
111.5401621
111.540162
111.540162
111.5401619
111.5401619
111.5401618
111.5401617
111.5401617
111.5401616
111.5401615
111.5401614
111.5401613
111.5401612
111.5401611
111.540161
111.5401608
111.5401606
111.5401602
111.5401616
111.5401511
111.5402035
111.5399807
111.5407225
111.5388541
111.5422985
111.538
111.538
111.540151
111.540151
111.540151
111.540151
111.540151
111.5401509
111.5401509
111.5401509
111.5401509
111.5401508
111.5401508
111.5401507
111.5401507
111.5401506
111.5401506
111.5401505
111.5401505
111.5401504
111.5401504
111.5401503
111.5401502
111.5401502
111.5401501
111.54015
111.5401499
111.5401498
111.5401497
111.5401495
111.5401494
111.5401492
111.5401488
111.54015
111.5401405
111.5401881
111.5399829
111.5406741
111.5389242
111.5421309
111.538
111.538
111.5401396
111.5401396
111.5401396
111.5401396
111.5401396
111.5401396
111.5401395
111.5401395
111.5401395
111.5401394
111.5401394
111.5401393
111.5401393
111.5401392
111.5401392
111.5401391
111.5401391
111.540139
111.5401389
111.5401389
111.5401388
111.5401387
111.5401386
111.5401386
111.5401385
111.5401384
111.5401382
111.5401381
111.5401379
111.5401378
111.5401374
111.5401384
111.54013
111.5401728
111.5399854
111.5406231
111.5389956
111.5419831
111.538
111.538
111.5401283
111.5401282
111.5401282
111.5401282
111.5401282
111.5401282
111.5401281
111.5401281
111.5401281
111.540128
111.540128
111.5401279
111.5401279
111.5401278
111.5401278
111.5401277
111.5401276
111.5401276
111.5401275
111.5401274
111.5401274
111.5401273
111.5401272
111.5401271
111.540127
111.5401269
111.5401268
111.5401267
111.5401265
111.5401263
111.540126
111.5401268
111.5401194
111.5401579
111.5399866
111.5405773
111.5390545
111.5417233
111.538
111.538
111.5401169
111.5401169
111.5401169
111.5401168
111.5401168
111.5401168
111.5401168
111.5401167
111.5401167
111.5401166
111.5401166
111.5401165
111.5401165
111.5401164
111.5401163
111.5401163
111.5401162
111.5401162
111.5401161
111.540116
111.540116
111.5401159
111.5401158
111.5401157
111.5401156
111.5401155
111.5401154
111.5401153
111.5401151
111.5401149
111.5401146
111.5401153
111.5401087
111.5401432
111.5399871
111.5405335
111.5391091
111.5412847
111.538
111.538
111.5401055
111.5401055
111.5401055
111.5401055
111.5401055
111.5401054
111.5401054
111.5401053
111.5401053
111.5401052
111.5401052
111.5401051
111.5401051
111.540105
111.5401049
111.5401049
111.5401048
111.5401047
111.5401047
111.5401046
111.5401045
111.5401045
111.5401044
111.5401043
111.5401042
111.5401041
111.540104
111.5401039
111.5401037
111.5401036
111.5401033
111.5401039
111.540098
111.5401289
111.5399869
111.5404913
111.5391602
111.5407448
111.538
111.538
111.5400942
111.5400942
111.5400942
111.5400941
111.5400941
111.5400941
111.540094
111.540094
111.5400939
111.5400939
111.5400938
111.5400937
111.5400937
111.5400936
111.5400935
111.5400935
111.5400934
111.5400933
111.5400933
111.5400932
111.5400931
111.5400931
111.540093
111.5400929
111.5400928
111.5400927
111.5400926
111.5400925
111.5400924
111.5400922
111.540092
111.5400925
111.5400873
111.5401149
111.5399858
111.5404515
111.539206
111.5401902
111.538
111.538
111.5400828
111.5400828
111.5400828
111.5400828
111.5400828
111.5400827
111.5400827
111.5400826
111.5400826
111.5400825
111.5400824
111.5400824
111.5400823
111.5400822
111.5400822
111.5400821
111.540082
111.5400819
111.5400819
111.5400818
111.5400817
111.5400817
111.5400816
111.5400815
111.5400814
111.5400814
111.5400813
111.5400812
111.540081
111.5400809
111.5400807
111.5400811
111.5400765
111.5401011
111.5399842
111.5404124
111.5392514
111.5396736
111.538
111.538
111.5400715
111.5400715
111.5400715
111.5400715
111.5400714
111.5400714
111.5400713
111.5400713
111.5400712
111.5400711
111.5400711
111.540071
111.5400709
111.5400708
111.5400708
111.5400707
111.5400706
111.5400705
111.5400705
111.5400704
111.5400703
111.5400703
111.5400702
111.5400701
111.5400701
111.54007
111.5400699
111.5400698
111.5400697
111.5400696
111.5400694
111.5400697
111.5400658
111.5400875
111.5399823
111.5403739
111.5392954
111.5392181
111.538
111.538
111.5400602
111.5400602
111.5400602
111.5400601
111.5400601
111.5400601
111.54006
111.5400599
111.5400599
111.5400598
111.5400597
111.5400596
111.5400596
111.5400595
111.5400594
111.5400593
111.5400592
111.5400592
111.5400591
111.540059
111.540059
111.5400589
111.5400588
111.5400588
111.5400587
111.5400586
111.5400586
111.5400585
111.5400584
111.5400583
111.5400581
111.5400584
111.540055
111.5400741
111.5399796
111.5403378
111.5393348
111.5388287
111.538
111.538
111.5400489
111.5400489
111.5400489
111.5400488
111.5400488
111.5400487
111.5400487
111.5400486
111.5400485
111.5400485
111.5400484
111.5400483
111.5400482
111.5400481
111.540048
111.5400479
111.5400478
111.5400478
111.5400477
111.5400476
111.5400476
111.5400475
111.5400474
111.5400474
111.5400473
111.5400473
111.5400472
111.5400472
111.5400471
111.540047
111.5400469
111.5400471
111.5400441
111.540061
111.5399764
111.5403025
111.5393747
111.5384862
111.538
111.538
111.5400376
111.5400376
111.5400376
111.5400375
111.5400375
111.5400374
111.5400374
111.5400373
111.5400372
111.5400371
111.540037
111.5400369
111.5400368
111.5400367
111.5400366
111.5400366
111.5400365
111.5400364
111.5400363
111.5400362
111.5400362
111.5400361
111.5400361
111.540036
111.540036
111.540036
111.5400359
111.5400359
111.5400358
111.5400357
111.5400356
111.5400358
111.5400333
111.540048
111.5399726
111.5402688
111.5394115
111.5381945
111.538
111.538
111.5400264
111.5400263
111.5400263
111.5400263
111.5400262
111.5400262
111.5400261
111.540026
111.5400259
111.5400258
111.5400257
111.5400256
111.5400255
111.5400254
111.5400253
111.5400252
111.5400251
111.540025
111.5400249
111.5400249
111.5400248
111.5400247
111.5400247
111.5400247
111.5400246
111.5400246
111.5400246
111.5400246
111.5400245
111.5400245
111.5400244
111.5400246
111.5400225
111.5400352
111.5399685
111.5402364
111.5394453
111.538
111.538
111.538
111.5400151
111.5400151
111.5400151
111.540015
111.540015
111.5400149
111.5400148
111.5400147
111.5400146
111.5400145
111.5400144
111.5400143
111.5400142
111.540014
111.5400139
111.5400138
111.5400137
111.5400136
111.5400135
111.5400135
111.5400134
111.5400134
111.5400133
111.5400133
111.5400133
111.5400133
111.5400133
111.5400133
111.5400133
111.5400132
111.5400132
111.5400133
111.5400116
111.5400224
111.5399641
111.5402042
111.5394795
111.538
111.538
111.538
111.5400039
111.5400039
111.5400038
111.5400038
111.5400037
111.5400036
111.5400036
111.5400035
111.5400033
111.5400032
111.5400031
111.540003
111.5400028
111.5400027
111.5400026
111.5400025
111.5400024
111.5400023
111.5400022
111.5400021
111.540002
111.540002
111.540002
111.5400019
111.5400019
111.5400019
111.540002
111.540002
111.540002
111.540002
111.540002
111.5400021
111.5400008
111.5400098
111.5399594
111.540173
111.5395117
111.538
111.538
111.538
111.5399927
111.5399927
111.5399926
111.5399926
111.5399925
111.5399924
111.5399923
111.5399922
111.5399921
111.5399919
111.5399918
111.5399917
111.5399915
111.5399914
111.5399912
111.5399911
111.539991
111.5399909
111.5399908
111.5399907
111.5399906
111.5399906
111.5399906
111.5399906
111.5399906
111.5399906
111.5399906
111.5399907
111.5399907
111.5399908
111.5399908
111.5399909
111.5399899
111.5399973
111.5399542
111.5401432
111.5395411
111.538
111.538
111.538
111.5399815
111.5399815
111.5399814
111.5399814
111.5399813
111.5399812
111.5399811
111.539981
111.5399808
111.5399807
111.5399805
111.5399804
111.5399802
111.5399801
111.5399799
111.5399798
111.5399796
111.5399795
111.5399794
111.5399793
111.5399793
111.5399792
111.5399792
111.5399792
111.5399792
111.5399793
111.5399793
111.5399794
111.5399795
111.5399795
111.5399796
111.5399797
111.5399791
111.5399849
111.5399488
111.5401143
111.5395694
111.538
111.538
111.538
111.5399703
111.5399703
111.5399703
111.5399702
111.5399701
111.53997
111.5399699
111.5399698
111.5399696
111.5399694
111.5399693
111.5399691
111.5399689
111.5399687
111.5399686
111.5399684
111.5399683
111.5399681
111.539968
111.5399679
111.5399679
111.5399678
111.5399678
111.5399678
111.5399679
111.5399679
111.539968
111.5399681
111.5399682
111.5399683
111.5399684
111.5399686
111.5399682
111.5399726
111.539943
111.5400864
111.5395969
111.538
111.538
111.538
111.5399592
111.5399592
111.5399592
111.5399591
111.539959
111.5399589
111.5399587
111.5399586
111.5399584
111.5399582
111.539958
111.5399578
111.5399576
111.5399574
111.5399572
111.5399571
111.5399569
111.5399568
111.5399566
111.5399565
111.5399565
111.5399564
111.5399564
111.5399564
111.5399565
111.5399566
111.5399567
111.5399568
111.5399569
111.5399571
111.5399573
111.5399574
111.5399574
111.5399604
111.5399369
111.5400596
111.5396222
111.538
111.538
111.538
111.5399481
111.5399481
111.5399481
111.539948
111.5399479
111.5399477
111.5399476
111.5399474
111.5399472
111.539947
111.5399468
111.5399466
111.5399464
111.5399461
111.5399459
111.5399457
111.5399455
111.5399454
111.5399452
111.5399451
111.5399451
111.539945
111.539945
111.539945
111.5399451
111.5399452
111.5399453
111.5399455
111.5399457
111.5399459
111.5399461
111.5399462
111.5399465
111.5399483
111.5399306
111.5400337
111.5396454
111.538
111.538
111.538
111.5399371
111.5399371
111.539937
111.5399369
111.5399368
111.5399366
111.5399365
111.5399363
111.5399361
111.5399358
111.5399356
111.5399354
111.5399351
111.5399349
111.5399346
111.5399344
111.5399342
111.539934
111.5399339
111.5399337
111.5399336
111.5399336
111.5399336
111.5399336
111.5399337
111.5399338
111.5399339
111.5399341
111.5399344
111.5399346
111.5399349
111.539935
111.5399357
111.5399361
111.5399242
111.5400086
111.5396668
111.538
111.538
111.538
111.5399261
111.539926
111.539926
111.5399259
111.5399257
111.5399256
111.5399254
111.5399252
111.5399249
111.5399247
111.5399244
111.5399241
111.5399239
111.5399236
111.5399233
111.5399231
111.5399228
111.5399226
111.5399225
111.5399223
111.5399222
111.5399221
111.5399221
111.5399222
111.5399222
111.5399224
111.5399226
111.5399228
111.5399231
111.5399233
111.5399237
111.5399238
111.5399249
111.539924
111.5399177
111.539984
111.5396867
111.538
111.538
111.538
111.5399151
111.5399151
111.539915
111.5399149
111.5399147
111.5399145
111.5399143
111.5399141
111.5399138
111.5399136
111.5399133
111.5399129
111.5399126
111.5399123
111.539912
111.5399117
111.5399115
111.5399112
111.539911
111.5399109
111.5399108
111.5399107
111.5399107
111.5399107
111.5399108
111.5399109
111.5399111
111.5399114
111.5399117
111.5399121
111.5399125
111.5399126
111.5399142
111.5399118
111.5399112
111.5399598
111.5397056
111.538
111.538
111.538
111.5399041
111.5399041
111.539904
111.5399039
111.5399038
111.5399036
111.5399033
111.5399031
111.5399028
111.5399025
111.5399021
111.5399018
111.5399014
111.5399011
111.5399008
111.5399004
111.5399001
111.5398999
111.5398996
111.5398994
111.5398993
111.5398992
111.5398992
111.5398992
111.5398993
111.5398995
111.5398997
111.5399
111.5399004
111.5399008
111.5399013
111.5399014
111.5399034
111.5398995
111.5399049
111.5399358
111.5397231
111.538
111.538
111.538
111.5398933
111.5398932
111.5398932
111.539893
111.5398928
111.5398926
111.5398924
111.5398921
111.5398917
111.5398914
111.539891
111.5398906
111.5398903
111.5398899
111.5398895
111.5398891
111.5398888
111.5398885
111.5398882
111.539888
111.5398878
111.5398877
111.5398877
111.5398877
111.5398878
111.539888
111.5398882
111.5398885
111.5398889
111.5398894
111.53989
111.5398901
111.5398928
111.5398871
111.5398988
111.5399121
111.5397403
111.538
111.538
111.538
111.5398824
111.5398824
111.5398823
111.5398822
111.539882
111.5398817
111.5398814
111.5398811
111.5398808
111.5398804
111.53988
111.5398795
111.5398791
111.5398787
111.5398782
111.5398778
111.5398774
111.5398771
111.5398768
111.5398765
111.5398763
111.5398762
111.5398761
111.5398761
111.5398762
111.5398764
111.5398767
111.5398771
111.5398775
111.539878
111.5398788
111.5398788
111.5398822
111.5398744
111.5398931
111.5398883
111.5397568
111.538
111.538
111.538
111.5398717
111.5398716
111.5398715
111.5398714
111.5398712
111.5398709
111.5398706
111.5398702
111.5398698
111.5398694
111.5398689
111.5398684
111.539868
111.5398675
111.539867
111.5398665
111.5398661
111.5398657
111.5398653
111.539865
111.5398648
111.5398646
111.5398646
111.5398646
111.5398646
111.5398648
111.5398651
111.5398655
111.539866
111.5398666
111.5398674
111.5398673
111.5398717
111.5398614
111.5398879
111.539864
111.5397728
111.538
111.538
111.538
111.539861
111.5398609
111.5398608
111.5398606
111.5398604
111.5398601
111.5398598
111.5398594
111.5398589
111.5398584
111.5398579
111.5398574
111.5398569
111.5398563
111.5398558
111.5398553
111.5398548
111.5398543
111.5398539
111.5398536
111.5398533
111.5398531
111.539853
111.5398529
111.539853
111.5398532
111.5398535
111.5398539
111.5398544
111.539855
111.5398561
111.5398558
111.5398613
111.5398479
111.5398832
111.5398398
111.5397874
111.538
111.538
111.538
111.5398503
111.5398503
111.5398502
111.53985
111.5398497
111.5398494
111.539849
111.5398486
111.5398481
111.5398475
111.539847
111.5398464
111.5398458
111.5398452
111.5398446
111.539844
111.5398434
111.5398429
111.5398425
111.539842
111.5398417
111.5398415
111.5398413
111.5398413
111.5398413
111.5398415
111.5398418
111.5398422
111.5398428
111.5398434
111.5398446
111.5398441
111.5398511
111.539834
111.5398792
111.5398156
111.5398003
111.538
111.538
111.538
111.5398398
111.5398397
111.5398396
111.5398394
111.5398391
111.5398387
111.5398383
111.5398378
111.5398373
111.5398367
111.5398361
111.5398354
111.5398348
111.5398341
111.5398334
111.5398328
111.5398321
111.5398315
111.539831
111.5398305
111.5398301
111.5398298
111.5398296
111.5398295
111.5398296
111.5398297
111.53983
111.5398304
111.539831
111.5398317
111.5398331
111.5398321
111.5398412
111.5398194
111.5398755
111.539792
111.5398107
111.538
111.538
111.538
111.5398293
111.5398293
111.5398291
111.5398289
111.5398286
111.5398282
111.5398277
111.5398272
111.5398266
111.5398259
111.5398252
111.5398245
111.5398238
111.539823
111.5398223
111.5398215
111.5398208
111.5398201
111.5398195
111.539819
111.5398185
111.5398182
111.5398179
111.5398178
111.5398178
111.5398179
111.5398182
111.5398186
111.5398192
111.5398198
111.5398216
111.5398198
111.5398315
111.5398042
111.5398719
111.5397699
111.5398174
111.538
111.538
111.538
111.5398189
111.5398189
111.5398187
111.5398184
111.5398181
111.5398177
111.5398172
111.5398166
111.5398159
111.5398152
111.5398145
111.5398137
111.5398128
111.539812
111.5398112
111.5398103
111.5398095
111.5398088
111.5398081
111.5398074
111.5398069
111.5398065
111.5398062
111.539806
111.5398059
111.539806
111.5398063
111.5398066
111.5398073
111.5398078
111.53981
111.5398071
111.5398222
111.5397883
111.5398683
111.5397499
111.5398193
111.538
111.538
111.538
111.5398086
111.5398086
111.5398084
111.5398081
111.5398077
111.5398073
111.5398067
111.5398061
111.5398054
111.5398046
111.5398038
111.5398029
111.539802
111.539801
111.5398001
111.5397992
111.5397983
111.5397974
111.5397966
111.5397959
111.5397953
111.5397947
111.5397944
111.5397941
111.539794
111.5397941
111.5397943
111.5397946
111.5397952
111.5397955
111.5397984
111.5397938
111.5398132
111.5397717
111.5398637
111.5397331
111.5398156
111.538
111.538
111.538
111.5397984
111.5397983
111.5397982
111.5397978
111.5397974
111.5397969
111.5397963
111.5397956
111.5397949
111.539794
111.5397931
111.5397921
111.5397911
111.5397901
111.5397891
111.539788
111.539787
111.539786
111.5397851
111.5397843
111.5397836
111.539783
111.5397825
111.5397822
111.5397821
111.5397821
111.5397822
111.5397825
111.5397831
111.5397829
111.5397869
111.5397796
111.5398046
111.539755
111.5398568
111.5397213
111.5398052
111.538
111.538
111.538
111.5397883
111.5397882
111.539788
111.5397877
111.5397873
111.5397867
111.5397861
111.5397853
111.5397845
111.5397835
111.5397825
111.5397815
111.5397804
111.5397792
111.5397781
111.5397769
111.5397758
111.5397747
111.5397737
111.5397728
111.539772
111.5397713
111.5397708
111.5397704
111.5397703
111.5397702
111.5397703
111.5397704
111.5397712
111.5397699
111.539776
111.5397642
111.5397963
111.5397385
111.5398464
111.5397154
111.5397879
111.538
111.538
111.538
111.5397783
111.5397783
111.539778
111.5397777
111.5397772
111.5397766
111.5397759
111.5397751
111.5397742
111.5397732
111.5397721
111.5397709
111.5397697
111.5397684
111.5397672
111.5397659
111.5397647
111.5397636
111.5397625
111.5397615
111.5397606
111.5397598
111.5397592
111.5397587
111.5397585
111.5397584
111.5397585
111.5397583
111.5397595
111.539756
111.5397667
111.5397472
111.5397886
111.5397231
111.5398322
111.5397134
111.5397667
111.538
111.538
111.538
111.5397685
111.5397684
111.5397681
111.5397678
111.5397672
111.5397666
111.5397659
111.539765
111.539764
111.5397629
111.5397617
111.5397604
111.5397591
111.5397578
111.5397565
111.5397552
111.5397539
111.5397527
111.5397514
111.53975
111.5397485
111.539747
111.5397458
111.539745
111.5397446
111.5397446
111.5397447
111.5397442
111.5397455
111.539739
111.5397607
111.5397307
111.5397837
111.5397157
111.5398098
111.5397238
111.5397342
111.538
111.538
111.538
111.5397587
111.5397586
111.5397584
111.539758
111.5397574
111.5397567
111.5397559
111.539755
111.5397539
111.5397527
111.5397515
111.5397502
111.5397488
111.5397475
111.5397461
111.5397446
111.5397428
111.5397403
111.5397371
111.539733
111.5397282
111.5397233
111.5397194
111.5397171
111.5397163
111.5397167
111.5397169
111.5397157
111.5397166
111.5397121
111.5397456
111.5396809
111.539755
111.5397255
111.5398036
111.5397093
111.5397283
111.538
111.538
111.538
111.5397491
111.539749
111.5397487
111.5397483
111.5397477
111.539747
111.5397461
111.5397451
111.539744
111.5397429
111.5397417
111.5397404
111.539739
111.5397373
111.5397346
111.5397305
111.5397244
111.5397156
111.5397039
111.5396893
111.539673
111.5396574
111.5396451
111.5396374
111.5396354
111.5396376
111.5396398
111.5396394
111.53964
111.5395785
111.539164
111.5385013
111.5389972
111.539376
111.5397968
111.539775
111.5396666
111.538
111.538
111.538
111.5397396
111.5397395
111.5397392
111.5397388
111.5397382
111.5397375
111.5397366
111.5397357
111.5397347
111.5397337
111.5397324
111.5397304
111.539727
111.5397209
111.5397104
111.5396946
111.5396727
111.5396443
111.5396095
111.539569
111.5395238
111.5394733
111.5394208
111.5393897
111.5394014
111.5394311
111.5394538
111.5394541
111.5391378
111.537248
111.538
111.538
111.538
111.538
111.5384979
111.5398045
111.5396835
111.538
111.538
111.538
111.5397305
111.5397304
111.5397301
111.5397298
111.5397293
111.5397287
111.539728
111.5397272
111.539726
111.539724
111.5397199
111.5397118
111.539697
111.5396722
111.539635
111.5395861
111.5395267
111.5394565
111.5393647
111.5391944
111.5388471
111.5384592
111.5382575
111.5384853
111.5388162
111.5390213
111.5390776
111.5381303
111.538
111.538
111.538
111.538
111.538
111.538
111.538
111.5384879
111.5398213
111.538
111.538
111.538
111.5397224
111.5397223
111.5397222
111.5397219
111.5397215
111.5397209
111.5397197
111.5397173
111.5397125
111.5397026
111.5396838
111.539649
111.5395842
111.5394686
111.539302
111.5391193
111.5389231
111.5385912
111.5377931
111.5367588
111.5371922
111.5379526
111.538
111.5379959
111.5383046
111.5383114
111.5363265
111.538
111.538
111.538
111.538
111.538
111.538
111.538
111.538
111.538
111.5395741
111.538
111.538
111.538
111.5397154
111.5397152
111.5397147
111.5397137
111.5397118
111.5397082
111.5397015
111.5396891
111.539665
111.5396134
111.5394744
111.53908
111.5383147
111.5374892
111.5370581
111.5369541
111.536946
111.5377352
111.538
111.538
111.538
111.538
111.538
111.538
111.538
111.538
111.538
111.538
111.538
111.538
111.538
111.538
111.538
111.538
111.538
111.538
111.5383074
111.538
111.538
111.538
111.5397006
111.5396991
111.5396945
111.5396864
111.5396724
111.5396471
111.5395939
111.5394552
111.5390508
111.5379853
111.536379
111.5368465
111.538
111.538
111.538
111.538
111.538
111.538
111.538
111.538
111.538
111.538
111.538
111.538
111.538
111.538
111.538
111.538
111.538
111.538
111.538
111.538
111.538
111.538
111.538
111.538
111.538
111.538
111.538
111.538
111.539505
111.5394665
111.539301
111.5389589
111.5384157
111.537619
111.5365126
111.535896
111.538
111.538
111.538
111.538
111.538
111.538
111.538
111.538
111.538
111.538
111.538
111.538
111.538
111.538
111.538
111.538
111.538
111.538
111.538
111.538
111.538
111.538
111.538
111.538
111.538
111.538
111.538
111.538
111.538
111.538
111.538
111.538
111.5366982
111.537332
111.538
111.538
111.538
111.538
111.538
111.538
111.538
111.538
111.538
111.538
111.538
111.538
111.538
111.538
111.538
111.538
111.538
111.538
111.538
111.538
111.538
111.538
111.538
111.538
111.538
111.538
111.538
111.538
111.538
111.538
111.538
111.538
111.538
111.538
111.538
111.538
111.538
111.538
111.538
111.538
111.538
111.538
111.538
111.538
111.538
111.538
111.538
111.538
111.538
111.538
111.538
111.538
111.538
111.538
111.538
111.538
111.538
111.538
111.538
111.538
111.538
111.538
111.538
111.538
111.538
111.538
111.538
111.538
111.538
111.538
111.538
111.538
111.538
111.538
111.538
111.538
111.538
111.538
111.538
111.538
111.538
111.538
111.538
111.538
111.538
111.538
111.538
111.538
111.538
111.538
111.538
111.538
111.538
111.538
111.538
111.538
111.538
111.538
111.538
111.538
111.538
111.538
111.538
111.538
111.538
111.538
111.538
111.538
111.538
111.538
111.538
111.538
111.538
111.538
111.538
111.538
111.538
111.538
111.538
111.538
111.538
111.538
111.538
111.538
111.538
111.538
111.538
111.538
111.538
111.538
111.538
111.538
111.538
111.538
111.538
111.538
111.538
111.538
111.538
111.538
111.538
111.538
111.538
111.538
111.538
111.538
111.538
111.538
111.538
111.538
111.538
111.538
111.538
111.538
111.538
111.538
111.538
111.538
111.538
111.538
111.538
111.538
111.538
111.538
111.538
111.538
111.538
111.538
111.538
111.538
111.538
111.538
111.538
111.538
111.538
111.538
111.538
111.538
111.538
111.538
111.538
111.538
111.538
111.538
111.538
111.538
111.538
111.538
111.538
111.538
111.538
111.538
111.538
111.538
111.538
111.538
111.538
111.538
111.538
111.538
111.538
111.538
111.538
111.538
111.538
111.538
111.538
111.538
111.538
111.538
111.538
111.538
111.538
111.538
111.538
111.538
111.538
111.538
111.538
111.538
111.538
111.538
111.538
111.538
111.538
111.538
111.538
111.538
111.538
111.538
111.538
111.538
111.538
111.538
111.538
111.538
111.538
111.538
111.538
111.538
111.538
111.538
111.538
111.538
111.538
111.538
111.538
111.538
111.538
111.538
111.538
111.538
111.538
111.538
111.538
111.538
111.538
111.538
111.538
111.538
111.538
111.538
111.538
111.538
111.538
111.538
111.538
111.538
111.538
111.538
111.538
111.538
111.538
111.538
111.538
111.538
111.538
111.538
111.538
111.538
111.538
111.538
111.538
111.538
111.538
111.538
111.538
111.538
111.538
111.538
111.538
111.538
111.538
111.538
111.538
111.538
111.538
111.538
111.538
111.538
111.538
111.538
111.538
111.538
111.538
111.538
111.538
111.538
111.538
111.538
111.538
111.538
111.538
111.538
111.538
111.538
111.538
111.538
111.538
111.538
111.538
111.538
111.538
111.538
111.538
111.538
111.538
111.538
111.538
111.538
111.538
111.538
111.538
111.538
111.538
111.538
111.538
111.538
111.538
111.538
111.538
111.538
111.5393537
111.6035636
111.8618383
111.9231951
111.8534201
111.7691462
111.7001729
111.5549618
111.538
111.538
111.538
111.538
111.538
111.5495561
111.8684574
111.860012
111.538
111.538
111.538
111.538
111.538
111.538
111.538
111.538
111.538
111.538
111.538
111.538
111.538
111.538
111.538
111.538
111.538
111.538
111.538
111.53875
111.54186
111.5469208
111.5575677
111.5977839
111.7606333
112.0108566
112.117124
112.1364137
112.1591598
112.2064219
112.2379974
112.2697824
112.146005
112.0746458
112.0621762
112.008729
112.1198675
112.2741362
112.0569092
112.0213087
111.538
111.538
111.538
111.538
111.538
111.538
111.538
111.538
111.538
111.538
111.538
111.538
111.538
111.538
111.538
111.538
111.5396762
111.5497402
111.5847198
111.6511
111.7148494
111.7547544
111.7868869
111.8370005
111.9236529
112.0304499
112.1036696
112.1389615
112.1418974
112.1198712
112.102623
112.0844749
112.1006884
112.1326309
112.1441928
112.1830672
112.198433
112.1704762
112.1765155
112.119043
111.538
111.538
111.538
111.538
111.538
111.538
111.538
111.538
111.538
111.538
111.538
111.538
111.538
111.538
111.5404412
111.5561246
111.6074456
111.6939118
111.7781203
111.8526892
111.9104619
111.9484917
111.9728177
111.9964148
112.040447
112.1075965
112.1508384
112.1636489
112.166075
112.1763642
112.1863018
112.1913427
112.1746511
112.1382621
112.1176428
112.1171134
112.1199813
112.1284474
112.1567567
112.1937177
111.538
111.538
111.538
111.538
111.538
111.538
111.538
111.538
111.538
111.538
111.538
111.538
111.538
111.5464047
111.593187
111.6718915
111.7362622
111.8040117
111.875774
111.9436533
112.000846