/*--------------------------------*- C++ -*----------------------------------*\
| =========                 |                                                 |
| \\      /  F ield         | OpenFOAM: The Open Source CFD Toolbox           |
|  \\    /   O peration     | Version:  v1912                                 |
|   \\  /    A nd           | Website:  www.openfoam.com                      |
|    \\/     M anipulation  |                                                 |
\*---------------------------------------------------------------------------*/
FoamFile
{
    version     2.0;
    format      ascii;
    class       volVectorField;
    location    "0.8";
    object      U.gas_0;
}
// * * * * * * * * * * * * * * * * * * * * * * * * * * * * * * * * * * * * * //

dimensions      [0 1 -1 0 0 0 0];


internalField   nonuniform List<vector> 
4800
(
(0.0005755640003 4.521032242e-19 0.01218182189)
(0.0009961616244 6.665618946e-19 0.01217547015)
(0.001569011524 -1.754701589e-17 0.01217550001)
(0.002160492446 -2.845664e-18 0.0121772438)
(0.002753632212 6.639161701e-19 0.01217998292)
(0.003342660805 6.519802512e-19 0.01218357319)
(0.00392436415 4.546494266e-19 0.01218794617)
(0.004496411112 1.70108226e-18 0.01219306541)
(0.005056856262 -1.314835484e-17 0.01219890162)
(0.005603968368 -8.290834328e-18 0.01220542629)
(0.006136160893 1.010810686e-17 0.01221261042)
(0.006651964527 2.080028452e-17 0.01222042175)
(0.007150020854 1.12529643e-17 0.01222882342)
(0.007629086346 2.786209413e-18 0.01223777303)
(0.008088042332 1.302492689e-19 0.0122472219)
(0.008525908834 1.387789999e-19 0.0122571143)
(0.008941861173 4.24282088e-19 0.01226738693)
(0.009335248681 5.247533367e-19 0.01227796836)
(0.009705615143 5.235131818e-19 0.01228877846)
(0.01005272071 4.955485709e-19 0.01229972802)
(0.01037656522 4.993434912e-19 0.01231071817)
(0.0106774129 5.078815995e-19 0.01232163988)
(0.01095581885 5.082923278e-19 0.01233237322)
(0.01121265768 4.925435825e-19 0.01234278644)
(0.01144915627 5.173494625e-19 0.01235273403)
(0.01166693237 5.003896546e-19 0.01236205437)
(0.01186803818 4.892602937e-19 0.0123705683)
(0.01205501623 5.333510538e-19 0.01237807188)
(0.0122309789 5.386354618e-19 0.01238432693)
(0.01239971887 5.251934188e-19 0.01238904754)
(0.01256586924 5.055189221e-19 0.01239187875)
(0.01273518952 4.906335577e-19 0.0123923321)
(0.01291537411 2.986838434e-19 0.01238949348)
(0.01311574605 1.401608359e-18 0.01238301138)
(0.01335750341 -3.660089715e-18 0.0123651714)
(0.01363241264 -4.943236235e-18 0.01236250204)
(0.01412211129 -4.901804281e-18 0.01222374006)
(0.01409453369 -3.893411853e-18 0.01269727399)
(0.01809881256 -2.529860423e-18 0.009003068812)
(0.01103431113 -6.056884178e-19 0.01989647263)
(0.0006141824053 4.804248133e-19 0.02307189629)
(0.001053745365 7.134954831e-19 0.02305879958)
(0.001652899754 -1.855589804e-17 0.02305949388)
(0.002272569505 -3.20591246e-18 0.02306484595)
(0.002894707005 6.855055405e-19 0.02307311969)
(0.003513130872 7.092693999e-19 0.02308391636)
(0.004124463644 4.893189135e-19 0.02309705047)
(0.004726287034 1.825240273e-18 0.02311242028)
(0.005316613412 -1.364980234e-17 0.02312993426)
(0.005893691767 -9.084403288e-18 0.02314951099)
(0.006455920416 1.013350412e-17 0.02317106507)
(0.007001818809 2.186805907e-17 0.0231945007)
(0.007530019518 1.242411423e-17 0.02321970802)
(0.008039271171 3.320678788e-18 0.02324656041)
(0.008528447868 1.990506993e-19 0.02327491212)
(0.008996562837 1.196599629e-19 0.02330459626)
(0.009442785073 4.407768066e-19 0.02333542295)
(0.009866458271 5.456507791e-19 0.02336717769)
(0.01026712161 5.439607761e-19 0.02339961981)
(0.01064453211 5.182959013e-19 0.02343248101)
(0.01099868841 5.388763683e-19 0.02346546389)
(0.01132985607 5.371737497e-19 0.02349824027)
(0.01163859449 5.412117094e-19 0.02353044913)
(0.01192578606 5.240829472e-19 0.02356169373)
(0.01219266869 5.093835199e-19 0.02359153634)
(0.01244087364 5.394191531e-19 0.02361949113)
(0.01267246932 5.629339688e-19 0.02364501924)
(0.01289001581 5.327384867e-19 0.02366750879)
(0.01309663863 5.176759085e-19 0.02368624768)
(0.0132961197 5.042813462e-19 0.02370039177)
(0.01349301026 5.220847401e-19 0.02370891119)
(0.01369289734 5.345023323e-19 0.02371036971)
(0.01390292208 2.736715674e-19 0.02370225331)
(0.01413186614 1.444223483e-18 0.02368330327)
(0.0143940097 -3.439988319e-18 0.02363485109)
(0.01468937693 -4.854420824e-18 0.02362223933)
(0.01518675578 -5.271233878e-18 0.02321798727)
(0.01536671297 -4.469150292e-18 0.02448317002)
(0.01651011326 -2.713928081e-18 0.01583511213)
(0.008773953618 -6.970547386e-19 0.04555502315)
(0.0006178025334 4.440598505e-19 0.02139503697)
(0.001059073439 7.180497906e-19 0.02138182358)
(0.001660147644 -1.85595925e-17 0.02138415688)
(0.002281623535 -3.216040309e-18 0.0213933194)
(0.002905659834 6.928505992e-19 0.02140720571)
(0.003526066287 7.071170229e-19 0.02142524248)
(0.004139437893 4.895644694e-19 0.02144715812)
(0.004743345481 1.828906488e-18 0.02147278902)
(0.005335786945 -1.364154434e-17 0.02150199061)
(0.00591498776 -9.103658029e-18 0.02153463143)
(0.006479328554 1.012582175e-17 0.02157057135)
(0.00702731269 2.188636947e-17 0.02160965238)
(0.007557556877 1.246831343e-17 0.02165169287)
(0.008068793523 3.303927584e-18 0.02169648295)
(0.008559879872 2.081751405e-19 0.02174378071)
(0.009029811492 1.188353846e-19 0.02179330875)
(0.009477738829 4.514377634e-19 0.02184475112)
(0.00990298607 5.350672646e-19 0.02189775058)
(0.01030507186 5.318592259e-19 0.021951906)
(0.01068373151 5.351374096e-19 0.02200676997)
(0.01103894063 5.680851198e-19 0.02206184633)
(0.01137093994 5.52068574e-19 0.02211658752)
(0.01168026156 5.294804845e-19 0.02217039128)
(0.01196775694 4.920002943e-19 0.0222225961)
(0.01223462695 5.090996653e-19 0.02227247361)
(0.01248245604 5.318147634e-19 0.02231921707)
(0.01271325193 5.224810201e-19 0.02236193259)
(0.01292948985 5.301456658e-19 0.02239961174)
(0.01313416876 5.248452357e-19 0.02243108934)
(0.01333088611 4.967051442e-19 0.02245500059)
(0.01352391399 4.679152338e-19 0.02246971887)
(0.01371829127 4.35393017e-19 0.02247303381)
(0.01392002354 3.228539052e-19 0.02246132807)
(0.01413636745 1.418531493e-18 0.02243225928)
(0.01437735553 -3.351363858e-18 0.02236248214)
(0.01464371081 -4.879474857e-18 0.02233704441)
(0.01500942936 -5.267763485e-18 0.02174720215)
(0.01513354926 -4.574726385e-18 0.02350190279)
(0.01506340612 -2.395174752e-18 0.01316978532)
(0.007449110749 -5.684747653e-19 0.05710903284)
(0.0006212682035 4.477622069e-19 0.0205684541)
(0.001064852712 7.029784087e-19 0.02055596988)
(0.001668808317 -1.855697187e-17 0.02056051304)
(0.002293054616 -3.218194414e-18 0.02057365669)
(0.00291983437 6.887927203e-19 0.02059321881)
(0.003542980505 7.078723082e-19 0.02061853089)
(0.004159081626 4.902196547e-19 0.02064925694)
(0.004765690125 1.828095103e-18 0.0206851755)
(0.005360783362 -1.363785425e-17 0.02072610155)
(0.005942567409 -9.110715222e-18 0.02077185492)
(0.006509400555 1.012993361e-17 0.02082224225)
(0.007059762186 2.192184443e-17 0.0208770449)
(0.007592243308 1.24779964e-17 0.0209360109)
(0.008105548792 3.325012213e-18 0.02099884865)
(0.008598506444 2.061462106e-19 0.02106522147)
(0.009070080495 1.26469315e-19 0.02113474284)
(0.009519388187 4.437073653e-19 0.02120697209)
(0.009945718675 5.342874446e-19 0.02128141056)
(0.01034855375 5.452707648e-19 0.02135749798)
(0.01072758999 5.390384371e-19 0.02143460921)
(0.01108276217 5.740660115e-19 0.02151205093)
(0.0114142676 5.399374488e-19 0.02158905819)
(0.01172259152 5.420867756e-19 0.0216647902)
(0.01200853329 5.270677333e-19 0.02173832477)
(0.01227323355 5.165942839e-19 0.02180864938)
(0.01251820367 5.337602926e-19 0.02187464649)
(0.01274535907 5.264521423e-19 0.02193508129)
(0.01295705147 5.428808352e-19 0.02198857469)
(0.01315610324 5.187205561e-19 0.02203355072)
(0.01334585327 4.944031674e-19 0.02206818286)
(0.01353020948 4.746608071e-19 0.02209033318)
(0.01371358469 4.45275094e-19 0.02209730227)
(0.01390079444 2.149761991e-19 0.0220848918)
(0.01409708356 1.43463155e-18 0.02205003836)
(0.01430757725 -3.424322567e-18 0.02196816748)
(0.01453199911 -4.989878057e-18 0.02193513521)
(0.01477076176 -5.356492149e-18 0.02128223433)
(0.01478193635 -4.505204976e-18 0.02325756003)
(0.01420371131 -2.206763095e-18 0.012451169)
(0.006785757526 -4.272748197e-19 0.06829443954)
(0.0006254572643 4.498411733e-19 0.01968572013)
(0.001072000746 7.227088608e-19 0.01967423054)
(0.001679826043 -1.855776251e-17 0.01968129868)
(0.00230792337 -3.226855104e-18 0.01969858528)
(0.002938516089 6.939085456e-19 0.01972390966)
(0.003565443157 7.109555865e-19 0.01975655923)
(0.0041852856 4.875427006e-19 0.01979615311)
(0.004795578859 1.829220779e-18 0.01984242599)
(0.00539427877 -1.363695181e-17 0.0198951541)
(0.00597956746 -9.128122095e-18 0.01995411355)
(0.006549775908 1.009888441e-17 0.02001906093)
(0.007103353122 2.192675477e-17 0.02008971969)
(0.007638856825 1.2494788e-17 0.02016577008)
(0.008154955707 3.317196563e-18 0.02024684113)
(0.008650438543 2.065635362e-19 0.02033250369)
(0.009124227753 1.270773526e-19 0.02042226428)
(0.009575396097 4.448086284e-19 0.02051555958)
(0.01000318568 5.477490829e-19 0.02061175147)
(0.01040702876 5.419066684e-19 0.02071012251)
(0.01078656985 5.314229121e-19 0.02080987181)
(0.0111416889 5.377934067e-19 0.0209101111)
(0.01147252516 5.196885132e-19 0.02100986068)
(0.01177950147 5.245418071e-19 0.0211080448)
(0.01206334877 5.268601123e-19 0.02120348569)
(0.01232512984 5.164439284e-19 0.02129489476)
(0.0125662625 5.239418693e-19 0.02138085653)
(0.01278854693 5.202349251e-19 0.02145981233)
(0.01299418669 5.367169066e-19 0.02153004201)
(0.01318580102 5.095537362e-19 0.02158960705)
(0.01336643677 4.696627412e-19 0.02163629376)
(0.01353957913 4.239060859e-19 0.02166755069)
(0.013709068 4.812042532e-19 0.0216803829)
(0.01387873375 2.396711461e-19 0.0216704995)
(0.01405218129 1.445411459e-18 0.02163468584)
(0.01423078969 -3.49903523e-18 0.02154999722)
(0.01441657283 -5.081151649e-18 0.02151393577)
(0.01457314807 -5.402883881e-18 0.0208816213)
(0.01451601075 -4.379794282e-18 0.02288739316)
(0.01362379971 -2.087695014e-18 0.01225598508)
(0.006351869394 -2.988130445e-19 0.07884843946)
(0.0006304764332 4.437606938e-19 0.0187994086)
(0.00108064089 7.205216909e-19 0.01878904743)
(0.001693295673 -1.855633185e-17 0.01879882348)
(0.002326280233 -3.219723402e-18 0.0188203826)
(0.002961731625 6.86799473e-19 0.01885155818)
(0.003593472149 7.056689972e-19 0.01889161975)
(0.004218068402 4.871267958e-19 0.01894015669)
(0.0048330361 1.829861762e-18 0.01899686999)
(0.005436306577 -1.364020741e-17 0.01906150204)
(0.006026033396 -9.127493815e-18 0.01913378986)
(0.006600514777 1.009601423e-17 0.0192134441)
(0.00715816282 2.190673829e-17 0.01930013383)
(0.007697494338 1.24886594e-17 0.01939347486)
(0.008217133202 3.325992098e-18 0.01949302002)
(0.008715819567 2.039447937e-19 0.01959825069)
(0.009192423587 1.239439451e-19 0.01970856931)
(0.009645962303 4.392139094e-19 0.0198232926)
(0.01007561884 5.317494782e-19 0.01994164556)
(0.01048076336 5.412855309e-19 0.02006275601)
(0.01086097523 5.284387245e-19 0.02018564984)
(0.01121606603 5.412292568e-19 0.0203092465)
(0.01154610298 5.211978492e-19 0.02043235469)
(0.01185143225 5.290559158e-19 0.02055366773)
(0.01213270175 5.192334755e-19 0.02067175792)
(0.01239088192 5.082591158e-19 0.02078506911)
(0.0126272831 5.172813291e-19 0.02089190206)
(0.01284357498 5.121833823e-19 0.02099039279)
(0.01304180004 5.36033132e-19 0.02107850803)
(0.01322436978 4.814618865e-19 0.02115399259)
(0.01339404827 4.470566258e-19 0.02121431793)
(0.0135539215 4.472541229e-19 0.02125662561)
(0.01370733163 4.81906998e-19 0.02127770233)
(0.01385748878 2.206648883e-19 0.02127346256)
(0.01400719004 1.417450814e-18 0.02124084913)
(0.01415618387 -3.498883319e-18 0.02116024965)
(0.01431134603 -5.124582714e-18 0.02112088777)
(0.01442189284 -5.458661467e-18 0.02055019817)
(0.01443277377 -4.337832656e-18 0.02246254852)
(0.01333480801 -1.927621943e-18 0.01247330172)
(0.006063739674 -1.992687949e-19 0.08897237869)
(0.0006363991919 4.474391033e-19 0.01790509073)
(0.001090863725 7.33598047e-19 0.0178959265)
(0.001709304744 -1.855398378e-17 0.01790852443)
(0.002348196295 -3.216970368e-18 0.01793445843)
(0.002989542091 6.911787038e-19 0.01797157183)
(0.003627127412 7.064400618e-19 0.01801912773)
(0.004257495612 4.829427187e-19 0.0180766965)
(0.004878137758 1.827801706e-18 0.01814395335)
(0.005486956399 -1.363150546e-17 0.01822061257)
(0.006082071563 -9.14172483e-18 0.01830637718)
(0.006661742914 1.014645494e-17 0.01840091655)
(0.007224338902 2.194343052e-17 0.01850384974)
(0.007768327665 1.251535337e-17 0.01861473225)
(0.008292279496 3.317941309e-18 0.01873304465)
(0.00879487624 1.987334952e-19 0.01885818264)
(0.00927492524 1.190247632e-19 0.0189894481)
(0.009731376501 4.340314197e-19 0.01912604114)
(0.01016334219 5.264769148e-19 0.01926705297)
(0.01057011786 5.407047332e-19 0.01941145968)
(0.0109512048 5.252435044e-19 0.01955811678)
(0.01130633308 5.318638438e-19 0.01970575443)
(0.01163548465 5.100022095e-19 0.01985297311)
(0.01193891595 5.010999201e-19 0.01999823933)
(0.01221717928 5.244536187e-19 0.02013988098)
(0.01247114151 5.112681112e-19 0.02027608212)
(0.01270199723 5.202090564e-19 0.02040487245)
(0.01291127854 5.161018757e-19 0.02052410259)
(0.01310086509 5.256224121e-19 0.02063144754)
(0.01327297074 4.824441899e-19 0.02072437376)
(0.01343010874 4.558255933e-19 0.02080009262)
(0.01357504313 4.425131218e-19 0.02085552022)
(0.01371071081 4.591589204e-19 0.02088728099)
(0.01383998928 1.911934977e-19 0.02089148203)
(0.01396544767 1.454927103e-18 0.02086530219)
(0.01408680921 -3.543500465e-18 0.02079280098)
(0.01421520648 -5.246925249e-18 0.02074744119)
(0.01429791887 -5.496903853e-18 0.02025274793)
(0.01437734181 -4.338091004e-18 0.02190739691)
(0.01300615794 -1.820399567e-18 0.01301645773)
(0.0057307507 -6.135592462e-20 0.09873328707)
(0.0006432673429 4.431370485e-19 0.01700165131)
(0.001102726359 7.189854713e-19 0.01699372223)
(0.001727917466 -1.855265223e-17 0.01700921941)
(0.002373733619 -3.228449087e-18 0.01703961153)
(0.003022008692 6.955019051e-19 0.01708274557)
(0.003666474281 7.061011293e-19 0.01713788296)
(0.004303641678 4.850669769e-19 0.0172045826)
(0.004930971635 1.827492168e-18 0.01728250056)
(0.005546333032 -1.362274669e-17 0.01737132893)
(0.006147807107 -9.153308315e-18 0.01747074228)
(0.006733608967 1.013454786e-17 0.01758037404)
(0.007302056507 2.197404586e-17 0.0176997984)
(0.007851561295 1.253982008e-17 0.01782851547)
(0.008380631165 3.318419063e-18 0.0179659383)
(0.008887879829 1.911612625e-19 0.0181113814)
(0.009372041137 1.174183879e-19 0.01826405038)
(0.009831986623 4.326110529e-19 0.01842303265)
(0.01026674544 5.244371118e-19 0.01858728932)
(0.01067552599 5.299823034e-19 0.01875564807)
(0.01105773871 5.188301059e-19 0.01892679721)
(0.01141301928 5.30875785e-19 0.01909928075)
(0.0117412518 5.175101237e-19 0.01927149418)
(0.01204259098 5.192865145e-19 0.01944168107)
(0.0123174827 5.220108566e-19 0.01960792967)
(0.0125666816 5.078379745e-19 0.01976817036)
(0.0127912621 5.15320903e-19 0.01992017103)
(0.0129926196 5.12335063e-19 0.02006151575)
(0.01317247745 5.166431331e-19 0.02018960223)
(0.01333287122 4.749449087e-19 0.02030164618)
(0.01347610341 4.141881839e-19 0.02039463423)
(0.01360469205 4.401489801e-19 0.0204653005)
(0.01372130332 4.347931676e-19 0.02051014671)
(0.01382860011 2.167863239e-19 0.02052535525)
(0.01392910088 1.445343251e-18 0.02050827274)
(0.01402288277 -3.539741492e-18 0.02044626601)
(0.01412435936 -5.336634027e-18 0.02039260741)
(0.01417508971 -5.556978119e-18 0.01998090896)
(0.01411668756 -4.229959134e-18 0.02121069165)
(0.01239125403 -1.653555812e-18 0.0139244853)
(0.005312422074 -1.855289792e-22 0.1081672303)
(0.0006511085325 4.367129642e-19 0.01608772295)
(0.001116269696 7.192737103e-19 0.01608105224)
(0.001749185575 -1.855425341e-17 0.01609950592)
(0.002402949262 -3.229520792e-18 0.01613442655)
(0.003059193785 7.007307421e-19 0.01618366014)
(0.003711583527 7.072644977e-19 0.01624646878)
(0.004356589801 4.834595725e-19 0.01632240574)
(0.004991637371 1.833099747e-18 0.01641111391)
(0.005614556383 -1.361919148e-17 0.0165122692)
(0.006223383915 -9.148070365e-18 0.01662552381)
(0.00681628442 1.009513982e-17 0.01675048123)
(0.007391518222 2.198684454e-17 0.01688667671)
(0.007947432309 1.255970602e-17 0.01703356072)
(0.008482463036 3.306905087e-18 0.01719048435)
(0.008995146001 1.84424142e-19 0.01735668622)
(0.009484130705 1.163116855e-19 0.01753128058)
(0.009948198597 4.340939572e-19 0.01771324675)
(0.0103862836 5.305078798e-19 0.01790141984)
(0.01079749437 5.200448417e-19 0.01809448288)
(0.01118113765 5.134493657e-19 0.01829096034)
(0.01153674208 5.348787901e-19 0.01848921309)
(0.01186408171 5.198843398e-19 0.01868743467)
(0.01216319836 5.198388239e-19 0.01888364879)
(0.01243442191 5.168834963e-19 0.01907570771)
(0.01267838763 5.030005964e-19 0.01926129219)
(0.01289604723 5.161152609e-19 0.0194379134)
(0.01308866682 5.074570607e-19 0.01960290122)
(0.01325782477 5.051030666e-19 0.01975338934)
(0.01340540167 4.665941862e-19 0.0198863538)
(0.01353353502 4.311893993e-19 0.01999857741)
(0.01364455886 4.127503111e-19 0.02008663177)
(0.01374094305 4.758965892e-19 0.02014690767)
(0.01382521365 2.445971859e-19 0.02017558266)
(0.01389998209 1.511259561e-18 0.0201699784)
(0.01396515599 -3.602973782e-18 0.02012083134)
(0.01403575818 -5.411405778e-18 0.02005870097)
(0.01404686529 -5.613727054e-18 0.01974033286)
(0.01385140752 -4.045587304e-18 0.02049353514)
(0.01189424858 -1.509517028e-18 0.01513784165)
(0.005008825804 6.789933425e-20 0.1172898234)
(0.0006599430682 4.23954719e-19 0.01516191592)
(0.001131525717 7.060595281e-19 0.0151565191)
(0.001773153172 -1.855446579e-17 0.01517797483)
(0.002435896615 -3.222686418e-18 0.01521748545)
(0.003101160158 7.060250894e-19 0.01527289362)
(0.003762529777 7.084217092e-19 0.01534346389)
(0.004416430032 4.853021158e-19 0.01542874921)
(0.005060244417 1.839132584e-18 0.01552838513)
(0.005691759378 -1.36189741e-17 0.0156420376)
(0.006308962512 -9.156878754e-18 0.01576934311)
(0.006909961506 1.009522117e-17 0.01590988201)
(0.007492952031 2.199682246e-17 0.01606315733)
(0.008056208371 1.257246889e-17 0.01622857653)
(0.00859808623 3.299534973e-18 0.01640543516)
(0.009117032919 1.796696914e-19 0.01659290204)
(0.009611602499 1.164644338e-19 0.01679000574)
(0.01008047448 4.33487339e-19 0.01699562268)
(0.01052247509 5.273298319e-19 0.01720846663)
(0.01093660041 5.257504581e-19 0.01742707998)
(0.01132204055 5.238112983e-19 0.01764982681)
(0.0116782044 5.402924882e-19 0.0178748878)
(0.01200474392 5.26651642e-19 0.01810025699)
(0.01230157721 5.246457677e-19 0.01832374043)
(0.01256890932 5.019492417e-19 0.01854295648)
(0.01280724994 4.94449056e-19 0.01875533829)
(0.01301742624 5.135988011e-19 0.01895814116)
(0.01320058272 5.002749682e-19 0.01914844364)
(0.01335816725 4.946836878e-19 0.01932312993)
(0.01349193038 4.566020721e-19 0.01947892995)
(0.01360389119 4.306977624e-19 0.01961242935)
(0.01369626111 4.223822279e-19 0.01972004676)
(0.01377136576 4.80012475e-19 0.01979807682)
(0.01383159145 2.679617538e-19 0.01984264418)
(0.0138797311 1.509722907e-18 0.01985072652)
(0.01391557669 -3.612363721e-18 0.01981707622)
(0.01395339275 -5.462255999e-18 0.01974884159)
(0.01392263677 -5.621677267e-18 0.01953459702)
(0.01360324686 -3.962296867e-18 0.01981970655)
(0.01144720532 -1.383244178e-18 0.01653001175)
(0.00473922847 9.511189688e-20 0.1261293379)
(0.0006697872083 4.102148257e-19 0.01422281332)
(0.001148521162 7.021001423e-19 0.01421870193)
(0.001799859397 -1.855071331e-17 0.01424319782)
(0.002472626171 -3.227030818e-18 0.01428735297)
(0.003147970347 6.982388682e-19 0.0143490064)
(0.003819390032 7.068181649e-19 0.01442742727)
(0.00448325738 4.880533614e-19 0.01452217362)
(0.005136909926 1.843062045e-18 0.01463287982)
(0.005778085743 -1.361118465e-17 0.01475920847)
(0.006404717779 -9.162621215e-18 0.01490078775)
(0.007014850895 1.012163497e-17 0.01505718247)
(0.007606609003 2.199701332e-17 0.01522787109)
(0.00817818546 1.259207785e-17 0.01541222563)
(0.008727845961 3.290198724e-18 0.01560949342)
(0.009253939106 1.71941853e-19 0.01581878042)
(0.009754912145 1.11022545e-19 0.01603903599)
(0.01022933045 4.319408587e-19 0.01626903947)
(0.01067589975 5.227470827e-19 0.01650738843)
(0.01109349032 5.55778118e-19 0.016752489)
(0.01148116243 5.30860296e-19 0.01700254835)
(0.01183819221 5.247018472e-19 0.01725556967)
(0.01216409731 5.220916641e-19 0.01750934937)
(0.01245866123 5.207758865e-19 0.01776147693)
(0.01272195543 4.570863411e-19 0.01800933725)
(0.01295435822 4.915625745e-19 0.0182501156)
(0.01315656953 5.14558512e-19 0.01848080902)
(0.01332961532 4.967661068e-19 0.0186982399)
(0.01347483271 4.923875492e-19 0.01889904905)
(0.01359386438 4.561727761e-19 0.0190797117)
(0.01368864319 4.444257864e-19 0.01923660211)
(0.01376132127 4.433828187e-19 0.01936598384)
(0.01381417895 4.904739334e-19 0.01946405858)
(0.01384951048 3.179916889e-19 0.01952692047)
(0.01387006744 1.472974457e-18 0.01955095587)
(0.01387625884 -3.522902581e-18 0.01953491447)
(0.01388148165 -5.575923398e-18 0.01946392983)
(0.01381345574 -5.595763658e-18 0.01936099401)
(0.01337646034 -3.892259381e-18 0.01918901388)
(0.01103906974 -1.259877505e-18 0.01805208137)
(0.004496411667 1.341410944e-19 0.134715167)
(0.0006806546777 4.420170107e-19 0.01326897646)
(0.001167279252 7.160066557e-19 0.01326616005)
(0.001829339603 -1.855286302e-17 0.01329372868)
(0.002513185586 -3.22982625e-18 0.01334257664)
(0.003199685678 7.036436176e-19 0.01341054055)
(0.003882241991 6.986852579e-19 0.0134968972)
(0.004557169691 4.77324825e-19 0.01360121558)
(0.005221756375 1.838180525e-18 0.01372313576)
(0.005873687459 -1.359716072e-17 0.01386232414)
(0.006510836311 -9.185279279e-18 0.01401840884)
(0.007131179022 1.006079619e-17 0.01419094768)
(0.007732760639 2.200679593e-17 0.0143794032)
(0.008313685247 1.258531798e-17 0.01458312056)
(0.008872118977 3.262393241e-18 0.01480130719)
(0.009406301007 1.412320692e-19 0.01503301405)
(0.009914560011 8.646176962e-20 0.0152771186)
(0.01039533459 4.100272686e-19 0.0155323096)
(0.01084719668 5.08500905e-19 0.0157970741)
(0.01126887706 5.063075239e-19 0.01606968662)
(0.01165929231 5.114920244e-19 0.01634820106)
(0.01201757235 5.289613322e-19 0.01663044548)
(0.01234308779 5.068884228e-19 0.01691401993)
(0.01263547616 5.048894308e-19 0.0171962973)
(0.01289466609 5.073944318e-19 0.01747442758)
(0.01312089816 5.022939516e-19 0.01774534563)
(0.01331474145 5.027738313e-19 0.01800578592)
(0.01347710396 4.86223286e-19 0.01825230449)
(0.01360922685 4.881088535e-19 0.01848128874)
(0.01371266488 4.458114702e-19 0.01868896028)
(0.01378928373 4.197679149e-19 0.01887145085)
(0.0138412112 4.101565419e-19 0.01902485127)
(0.01387075129 4.676426898e-19 0.01914524267)
(0.01388025364 2.790793598e-19 0.01922871688)
(0.0138725385 1.449223938e-18 0.01927097902)
(0.01384924246 -3.515519762e-18 0.01927367521)
(0.01382068295 -5.6541032e-18 0.01920485975)
(0.01371877675 -5.641348785e-18 0.01921282294)
(0.01318553986 -3.770990489e-18 0.0185959164)
(0.01067678571 -1.168682167e-18 0.0196958377)
(0.004273290411 2.135390972e-19 0.1430690913)
(0.000692557272 4.374705618e-19 0.01229894799)
(0.001187820321 7.033461682e-19 0.01229743533)
(0.001861625601 -1.855721968e-17 0.01232810438)
(0.002557619147 -3.222484406e-18 0.01238168665)
(0.003256364944 7.026048395e-19 0.01245601917)
(0.00395116211 6.973210274e-19 0.01255039017)
(0.004638265274 4.783893355e-19 0.01266438614)
(0.005314908887 1.839696151e-18 0.0127976608)
(0.005978721895 -1.359247734e-17 0.01294989225)
(0.00662751344 -9.204422016e-18 0.01312071777)
(0.007259185065 1.005665253e-17 0.01330969781)
(0.007871695848 2.201715085e-17 0.01351628874)
(0.008463052147 1.259594298e-17 0.01373981857)
(0.009031310725 3.24713889e-18 0.01397946421)
(0.00957459026 1.252024391e-19 0.01423423053)
(0.01009108864 7.859056196e-20 0.01450293127)
(0.01057910451 4.043511116e-19 0.01478417193)
(0.01103706207 5.055240629e-19 0.01507633523)
(0.01146353824 5.042856256e-19 0.01537756914)
(0.01185729136 5.045795483e-19 0.01568577796)
(0.01221729084 5.27719958e-19 0.01599861686)
(0.01254274668 5.064639533e-19 0.01631349007)
(0.01283313824 5.042712496e-19 0.01662755276)
(0.0130882411 5.245949617e-19 0.0169377169)
(0.01330815036 5.135223353e-19 0.0172406623)
(0.0134932997 5.068391399e-19 0.01753285433)
(0.01364447792 4.940290728e-19 0.01781056922)
(0.01376283367 4.984647719e-19 0.01806992038)
(0.01384985711 4.637267621e-19 0.01830687049)
(0.01390736386 4.303366535e-19 0.01851728689)
(0.01393747767 4.234154873e-19 0.01869704636)
(0.01394257774 4.969629295e-19 0.01884206195)
(0.01392514761 3.513005049e-19 0.01894839889)
(0.01388818144 1.495053469e-18 0.01901103606)
(0.01383386622 -3.533176273e-18 0.0190335413)
(0.01377220448 -5.655978166e-18 0.0189713304)
(0.01364213376 -5.69122156e-18 0.0190837318)
(0.01302457673 -3.723364585e-18 0.01802316551)
(0.01034808153 -1.061093291e-18 0.02146957737)
(0.004064738507 2.281074654e-19 0.1512083313)
(0.0007055049707 4.375268562e-19 0.01131125451)
(0.001210161793 6.998383215e-19 0.01131105438)
(0.00189674523 -1.856146159e-17 0.01134484645)
(0.002605966729 -3.223115715e-18 0.01140319656)
(0.00331806269 7.026493131e-19 0.01148394633)
(0.004026223318 7.007633613e-19 0.01158640031)
(0.004726640181 4.837621759e-19 0.01171016974)
(0.0054164922 1.843365123e-18 0.01185493124)
(0.006093348558 -1.358437289e-17 0.01202038354)
(0.006754949864 -9.228020447e-18 0.01220618333)
(0.007399117519 1.008483031e-17 0.01241190452)
(0.00802371756 2.200863969e-17 0.01263700836)
(0.008626650013 1.260118416e-17 0.0128808166)
(0.009205852178 3.252684939e-18 0.01314248626)
(0.009759310731 1.132104467e-19 0.01342098615)
(0.01028507999 7.499000592e-20 0.01371507543)
(0.01078130482 4.001885709e-19 0.01402328454)
(0.01124624699 5.121798012e-19 0.01434389872)
(0.01167831427 4.732340191e-19 0.01467494485)
(0.01207609132 4.699633176e-19 0.01501418149)
(0.01243837166 5.2106948e-19 0.01535909298)
(0.01276418999 5.145582311e-19 0.01570688774)
(0.01305285396 4.973743088e-19 0.01605450096)
(0.01330397427 5.643556496e-19 0.01639860212)
(0.01351749087 5.440874267e-19 0.01673560947)
(0.01369369614 5.114830417e-19 0.01706170961)
(0.01383325652 4.948132168e-19 0.01737288417)
(0.01393722702 4.668712817e-19 0.01766494808)
(0.01400704332 4.904581852e-19 0.01793358201)
(0.01404449842 4.762114325e-19 0.01817437641)
(0.01405174139 4.801372874e-19 0.01838293676)
(0.01403126574 5.172753552e-19 0.01855494453)
(0.0139857589 4.245240229e-19 0.0186863867)
(0.01391833975 1.489338961e-18 0.01877159584)
(0.01383099243 -3.532726739e-18 0.01881594641)
(0.0137360418 -5.713185081e-18 0.01876115684)
(0.01358008287 -5.723758166e-18 0.01896996296)
(0.01288738736 -3.71626572e-18 0.01745823314)
(0.01004825031 -8.817864705e-19 0.02337802176)
(0.003869116666 2.7270217e-19 0.1591474755)
(0.0007195057344 4.396636083e-19 0.01030440922)
(0.001234317733 7.097352158e-19 0.01030553109)
(0.001934721462 -1.855846151e-17 0.01034246295)
(0.002658262312 -3.216648674e-18 0.01040560466)
(0.003384827128 7.078890178e-19 0.01049280789)
(0.00410749237 7.023376201e-19 0.01060339959)
(0.004822385093 4.87610525e-19 0.01073702372)
(0.005526627198 1.855105621e-18 0.01089339069)
(0.006217725383 -1.357579958e-17 0.01107222995)
(0.006893347801 -9.238679341e-18 0.01127322908)
(0.007551230325 1.003172408e-17 0.01149598761)
(0.008189138893 2.203901355e-17 0.01173998413)
(0.008804858427 1.262923331e-17 0.01200454646)
(0.009396196324 3.238097916e-18 0.01228882364)
(0.009960995245 1.167010111e-19 0.01259175968)
(0.01049715252 8.403916344e-20 0.01291206952)
(0.01100264455 4.265085925e-19 0.01324821756)
(0.01147555509 5.22702496e-19 0.01359839927)
(0.0119141065 5.253145994e-19 0.01396052636)
(0.01231669314 5.350631631e-19 0.01433221575)
(0.01268191606 5.5042356e-19 0.01471078296)
(0.01300861848 5.347224649e-19 0.01509324022)
(0.01329592099 5.391152945e-19 0.0154762997)
(0.0135432551 5.393701059e-19 0.01585638287)
(0.01375039392 5.29010641e-19 0.01622963761)
(0.01391748077 5.284670183e-19 0.01659195899)
(0.0140450549 5.187204482e-19 0.01693901817)
(0.01413407267 5.260401069e-19 0.01726630658)
(0.01418591533 4.985401311e-19 0.01756918779)
(0.01420237959 4.856704789e-19 0.01784294571)
(0.01418566682 4.799900003e-19 0.01808287085)
(0.01413839329 5.346003708e-19 0.01828433811)
(0.01406345004 3.968388313e-19 0.01844320508)
(0.01396427601 1.569501268e-18 0.01855318228)
(0.01384316012 -3.608296028e-18 0.01862165254)
(0.01371250925 -5.758573262e-18 0.01857484228)
(0.01352321822 -5.783681502e-18 0.01887399889)
(0.01273880489 -3.613877491e-18 0.01690588704)
(0.009751933879 -8.813801639e-19 0.02540551395)
(0.003687775206 2.952243901e-19 0.1669016087)
(0.0007345651009 4.39959454e-19 0.009276915127)
(0.001260298098 7.090304905e-19 0.009279369734)
(0.001975571114 -1.856320468e-17 0.009319451176)
(0.002714532093 -3.222396529e-18 0.009387395985)
(0.003456697659 7.107503027e-19 0.009481072946)
(0.004195026825 7.087060583e-19 0.00959983867)
(0.00492558179 4.921136815e-19 0.00974337852)
(0.005645426954 1.853576098e-18 0.0099114495)
(0.006352004515 -1.359467568e-17 0.01010382324)
(0.007042906641 -9.260886229e-18 0.01032023109)
(0.007715778484 1.004994066e-17 0.01056031192)
(0.008368278831 2.205818279e-17 0.01082357562)
(0.008998068533 1.264276447e-17 0.01110937)
(0.009602814239 3.240072414e-18 0.01141684956)
(0.01018020199 1.05322801e-19 0.01174494614)
(0.0107279579 8.692609304e-20 0.01209234203)
(0.01124387434 4.220878595e-19 0.01245744579)
(0.01172584037 5.209396539e-19 0.0128383716)
(0.01217187545 5.286880572e-19 0.01323292256)
(0.01258016572 4.865856052e-19 0.0136385784)
(0.01294910183 5.32863308e-19 0.01405248785)
(0.01327731769 5.38846044e-19 0.01447146643)
(0.01356372922 5.302364215e-19 0.01489199992)
(0.01380757179 5.330863819e-19 0.01531025554)
(0.01400843728 5.502022509e-19 0.01572209928)
(0.01416630926 5.3857051e-19 0.01612311933)
(0.0142815926 5.308989654e-19 0.01650865832)
(0.01435514013 5.102282555e-19 0.01687385954)