/*--------------------------------*- C++ -*----------------------------------*\
| =========                 |                                                 |
| \\      /  F ield         | OpenFOAM: The Open Source CFD Toolbox           |
|  \\    /   O peration     | Version:  v1912                                 |
|   \\  /    A nd           | Website:  www.openfoam.com                      |
|    \\/     M anipulation  |                                                 |
\*---------------------------------------------------------------------------*/
FoamFile
{
    version     2.0;
    format      ascii;
    class       volVectorField;
    location    "0.8";
    object      U.gas;
}
// * * * * * * * * * * * * * * * * * * * * * * * * * * * * * * * * * * * * * //

dimensions      [0 1 -1 0 0 0 0];


internalField   nonuniform List<vector> 
4800
(
(0.0005773787864 4.524687234e-19 0.01218054209)
(0.0009993184857 6.688145489e-19 0.01217415973)
(0.001573987555 -1.756191902e-17 0.01217419405)
(0.002167324961 -2.858345175e-18 0.0121759548)
(0.002762293495 6.636289746e-19 0.01217871892)
(0.003353095636 6.534422398e-19 0.01218234121)
(0.003936498568 4.550281992e-19 0.01218675261)
(0.004510155813 1.705916656e-18 0.01219191628)
(0.005072108519 -1.314484407e-17 0.01219780246)
(0.005620613554 -8.31525633e-18 0.0122043822)
(0.006154073808 1.008579094e-17 0.01221162603)
(0.006671010682 2.081182183e-17 0.01221950119)
(0.00717005777 1.12896602e-17 0.01222797031)
(0.007649964889 2.807332554e-18 0.01223699045)
(0.00810960808 1.334360556e-19 0.01224651235)
(0.008548003474 1.373873753e-19 0.01225647973)
(0.008964323918 4.23825235e-19 0.01226682869)
(0.009357917703 5.253482587e-19 0.0122774872)
(0.009728328994 5.241975862e-19 0.01228837457)
(0.01007531974 4.962925196e-19 0.01229940098)
(0.01039889294 4.998865704e-19 0.01231046699)
(0.01069931737 5.085506086e-19 0.01232146299)
(0.01097715392 5.091304851e-19 0.01233226855)
(0.01123328427 4.93178659e-19 0.01234275138)
(0.01146894352 5.180341588e-19 0.01235276547)
(0.01168575875 5.011188834e-19 0.01236214871)
(0.01188579259 4.893133629e-19 0.01237072151)
(0.01207159903 5.33808465e-19 0.01237827949)
(0.0122463028 5.387897916e-19 0.012384584)
(0.01241370997 5.256122054e-19 0.01238934875)
(0.01257846753 5.057827897e-19 0.01239221862)
(0.01274634905 4.911741454e-19 0.01239270503)
(0.01292506659 2.991852976e-19 0.01238989141)
(0.0131239545 1.401527713e-18 0.01238343262)
(0.01336426176 -3.657543217e-18 0.01236558156)
(0.01363768639 -4.94015485e-18 0.01236297834)
(0.01412613929 -4.903253581e-18 0.01222402034)
(0.01409781154 -3.899214014e-18 0.0126974356)
(0.01810006017 -2.540673038e-18 0.009004142463)
(0.01103408407 -6.129426475e-19 0.01989636149)
(0.0006161329131 4.810442571e-19 0.02306796058)
(0.001057095064 7.161522752e-19 0.02305479973)
(0.001658147235 -1.857222129e-17 0.02305551105)
(0.002279757963 -3.220294113e-18 0.02306091501)
(0.002903810997 6.850019001e-19 0.02306926456)
(0.003524095464 7.109779832e-19 0.0230801581)
(0.004137214111 4.897596327e-19 0.02309340841)
(0.00474073266 1.830578937e-18 0.02310891252)
(0.005332649672 -1.364545182e-17 0.02312657753)
(0.005911201906 -9.111305892e-18 0.02314632069)
(0.006474776804 1.010751415e-17 0.02316805519)
(0.007021884251 2.187919442e-17 0.02319168373)
(0.007551148584 1.246501857e-17 0.02321709492)
(0.008061311542 3.345898762e-18 0.0232441605)
(0.008551241727 2.034640941e-19 0.02327273302)
(0.009019948274 1.179309753e-19 0.02330264388)
(0.009466597519 4.399852732e-19 0.02333370143)
(0.009890531943 5.463346689e-19 0.02336568938)
(0.01029129095 5.448029217e-19 0.0233983653)
(0.0106686332 5.191980228e-19 0.02343145912)
(0.01102256039 5.393641851e-19 0.02346467171)
(0.01135334246 5.376056186e-19 0.0234976732)
(0.01166154453 5.413283223e-19 0.02353010095)
(0.01194805594 5.244727774e-19 0.02356155667)
(0.01221412273 5.095789478e-19 0.0235916011)
(0.01246138536 5.400778313e-19 0.02361974699)
(0.01269192258 5.63630752e-19 0.02364545413)
(0.01290830574 5.333462157e-19 0.02366810936)
(0.01311367259 5.183351724e-19 0.02368699924)
(0.01331181834 5.049838729e-19 0.02370127834)
(0.01350730812 5.226290862e-19 0.02370991634)
(0.01370574268 5.349177783e-19 0.02371147685)
(0.01391427851 2.741550926e-19 0.02370343963)
(0.01414171237 1.444124681e-18 0.02368455999)
(0.014402357 -3.437060599e-18 0.02363609082)
(0.01469621974 -4.850131442e-18 0.0236236437)
(0.0151921903 -5.271185991e-18 0.02321893393)
(0.01537106615 -4.476041166e-18 0.02448377947)
(0.01651219266 -2.725456352e-18 0.01583851633)
(0.008774094325 -7.064064981e-19 0.04555499787)
(0.0006197790634 4.440010669e-19 0.02138833028)
(0.001062461502 7.206595235e-19 0.02137505157)
(0.001665448358 -1.857579856e-17 0.02137742011)
(0.00228887975 -3.230609213e-18 0.02138667099)
(0.002914846397 6.923733038e-19 0.02140068501)
(0.0035371283 7.088054136e-19 0.0214188846)
(0.004152300422 4.900091123e-19 0.02144099544)
(0.004757917478 1.834095471e-18 0.02146685182)
(0.005351963397 -1.363693021e-17 0.02149630696)
(0.005932651249 -9.130808336e-18 0.02152922715)
(0.006498350668 1.009959503e-17 0.02156546994)
(0.007047555362 2.18974029e-17 0.02160487485)
(0.00757887373 1.250964769e-17 0.02164725761)
(0.008091031237 3.329398431e-18 0.02169240565)
(0.008582879585 2.127951882e-19 0.02174007422)
(0.009053410227 1.170576881e-19 0.02178998302)
(0.009501770939 4.508604471e-19 0.02184181317)
(0.009927284691 5.355881748e-19 0.02189520444)
(0.01032947036 5.327802545e-19 0.02194975274)
(0.01070806494 5.35276961e-19 0.0220050077)
(0.0110630471 5.684291215e-19 0.02206047026)
(0.01139466201 5.526782379e-19 0.02211559004)
(0.01170344754 5.301729185e-19 0.02216976207)
(0.01199026212 4.926453293e-19 0.02222232224)
(0.01225631479 5.093639197e-19 0.02227253969)
(0.01250319924 5.323575525e-19 0.02231960531)
(0.01273293347 5.232733921e-19 0.02236262288)
(0.01294800397 5.306206358e-19 0.02240058192)
(0.01315142186 5.253177996e-19 0.02243231513)
(0.01334679749 4.973274777e-19 0.02245645557)
(0.01353841732 4.686949445e-19 0.02247137512)
(0.01373133444 4.358921931e-19 0.02247486416)
(0.01393156748 3.233960319e-19 0.02246329775)
(0.01414638814 1.418277706e-18 0.02243434736)
(0.0143858533 -3.348583893e-18 0.02236457086)
(0.01465068482 -4.874880093e-18 0.02233935276)
(0.01501495647 -5.267184458e-18 0.0217489446)
(0.01513775471 -4.582412076e-18 0.02350316505)
(0.01506545968 -2.40712439e-18 0.01317423294)
(0.007449393346 -5.78483182e-19 0.0571095645)
(0.0006232745219 4.483256339e-19 0.02055893636)
(0.001068290322 7.055457422e-19 0.02054639182)
(0.001674183874 -1.857320304e-17 0.02055099167)
(0.002300410434 -3.232837489e-18 0.02056426137)
(0.002929144766 6.883193217e-19 0.02058400393)
(0.003554189909 7.095334178e-19 0.02060954555)
(0.004172114209 4.90580277e-19 0.02064054665)
(0.004780453692 1.83344195e-18 0.0206767828)
(0.005377171533 -1.363315362e-17 0.02071806595)
(0.005960461216 -9.137992664e-18 0.02076421281)
(0.006528669865 1.010356762e-17 0.02081502672)
(0.007080267061 2.193295478e-17 0.02087028554)
(0.007613835374 1.251934011e-17 0.02092973366)
(0.008128072629 3.350555013e-18 0.02099307562)
(0.008621801008 2.106815874e-19 0.02105997079)
(0.009093980568 1.245964598e-19 0.02113002855)
(0.009543725842 4.432127037e-19 0.02120280411)
(0.009970324757 5.348132767e-19 0.02127779461)
(0.01037325935 5.458940861e-19 0.02135443559)
(0.01075222789 5.39637449e-19 0.02143209777)
(0.01110716828 5.748495659e-19 0.02151008376)
(0.01143828235 5.406527486e-19 0.02158762463)
(0.01174606114 5.425112908e-19 0.02166387578)
(0.01203131111 5.275479351e-19 0.02173791136)
(0.01229518118 5.171059543e-19 0.02180871541)
(0.01253919202 5.341230542e-19 0.02187516708)
(0.01276526941 5.270610521e-19 0.02193602831)
(0.01297577635 5.431163897e-19 0.02198991717)
(0.01317354741 5.190894592e-19 0.02203525482)
(0.01336193446 4.951382204e-19 0.02207021185)
(0.01354485928 4.752705446e-19 0.02209264759)
(0.01372674961 4.458252604e-19 0.02209986361)
(0.01391243465 2.157482625e-19 0.02208765509)
(0.01410717217 1.434378907e-18 0.02205297036)
(0.01431610443 -3.42096988e-18 0.02197113075)
(0.01453895708 -4.985660011e-18 0.02193836328)
(0.01477616326 -5.356416224e-18 0.02128485639)
(0.01478296987 -4.513350248e-18 0.02325970317)
(0.01420028153 -2.219770896e-18 0.01245725795)
(0.006783608207 -4.367987466e-19 0.06829564175)
(0.0006275004378 4.502699435e-19 0.01967334376)
(0.001075501429 7.252255074e-19 0.01966180086)
(0.001685299232 -1.857393061e-17 0.01966894923)
(0.002315411236 -3.241560312e-18 0.01968640096)
(0.002947992138 6.933973552e-19 0.01971195966)
(0.003576850721 7.126904194e-19 0.01974490671)
(0.004198547466 4.879463266e-19 0.01978485681)
(0.004810601167 1.834474914e-18 0.01983154091)
(0.005410953208 -1.363205771e-17 0.01988473135)
(0.005997772894 -9.155404827e-18 0.01994420023)
(0.006569379822 1.007179165e-17 0.0200096999)
(0.007124213005 2.193755997e-17 0.02008094928)
(0.007660821566 1.253657061e-17 0.02015762388)
(0.008177867013 3.342815553e-18 0.02023934777)
(0.00867413239 2.10883159e-19 0.02032568665)
(0.009148535863 1.251444546e-19 0.02041614179)
(0.009600147438 4.438830424e-19 0.02051014448)
(0.01002820798 5.481929687e-19 0.02060705119)
(0.01043214998 5.423256776e-19 0.02070613906)
(0.01081161972 5.318558499e-19 0.02080660183)
(0.01116650033 5.381354062e-19 0.02090754597)
(0.01149693565 5.201090037e-19 0.02100798665)
(0.01180335448 5.248915525e-19 0.02110684318)
(0.01208649497 5.27160077e-19 0.02120293308)
(0.01234742831 5.167858125e-19 0.0212949633)
(0.0125875818 5.242041786e-19 0.0213815142)
(0.01280876607 5.2049773e-19 0.02146102294)
(0.01301319602 5.375302903e-19 0.02153176568)
(0.01320350317 5.09843297e-19 0.02159180036)
(0.01338274731 4.702131028e-19 0.02163890969)
(0.01355442726 4.240680893e-19 0.02167053872)
(0.01372239857 4.818406995e-19 0.02168369178)
(0.01389050635 2.40206766e-19 0.02167407419)
(0.01406236833 1.445208485e-18 0.02163848205)
(0.01423937177 -3.49595445e-18 0.02155386768)
(0.01442353818 -5.076578783e-18 0.02151811317)
(0.01457844522 -5.40252307e-18 0.02088524525)
(0.01452087388 -4.388485997e-18 0.02289085172)
(0.01362836076 -2.100492354e-18 0.01226487341)
(0.006353782731 -3.076899688e-19 0.07885032591)
(0.0006325646742 4.437392765e-19 0.01878411521)
(0.001084219337 7.231804286e-19 0.0187737084)
(0.00169889027 -1.857226997e-17 0.01878358964)
(0.002333933412 -3.234473014e-18 0.01880535435)
(0.002971415937 6.862339428e-19 0.01883681955)
(0.003605129479 7.073362463e-19 0.01887724807)
(0.004231619706 4.875620084e-19 0.01892622417)
(0.004848385342 1.835300484e-18 0.01898344429)
(0.005453342952 -1.36349018e-17 0.01904864611)
(0.006044632984 -9.155027458e-18 0.01912156175)
(0.006620542012 1.006856535e-17 0.0192018966)
(0.007179471906 2.191778829e-17 0.0192893142)
(0.007719930678 1.253067235e-17 0.0193834245)
(0.00824053485 3.352025041e-18 0.01948377422)
(0.00874001871 2.084119526e-19 0.01958983841)
(0.009217248068 1.219740468e-19 0.01970101301)
(0.009671237151 4.385859473e-19 0.01981660813)
(0.01010116782 5.320624677e-19 0.01993584207)
(0.0105064105 5.419432539e-19 0.020057836)
(0.01088654636 5.286753883e-19 0.02018160917)
(0.01124139027 5.41797068e-19 0.02030607456)
(0.01157101415 5.21410171e-19 0.02043003458)
(0.0118757703 5.29644881e-19 0.02055217644)
(0.012156314 5.19404078e-19 0.02067106663)
(0.0124136243 5.084872738e-19 0.02078514357)
(0.01264902126 5.181161406e-19 0.02089270294)
(0.01286418516 5.128089518e-19 0.02099187581)
(0.01306116997 5.364654834e-19 0.02108062432)
(0.01324239952 4.815865257e-19 0.02115668908)
(0.01341065083 4.474214502e-19 0.02121753733)
(0.01356902372 4.47595132e-19 0.0212603064)
(0.01372087539 4.828830475e-19 0.02128178039)
(0.01386943152 2.212919998e-19 0.02127787158)
(0.01401750343 1.417145844e-18 0.02124553388)
(0.01416484486 -3.495232052e-18 0.0211650609)
(0.01431836457 -5.119592868e-18 0.02112602887)
(0.01442726926 -5.458007623e-18 0.02055486711)
(0.01443803081 -4.347177926e-18 0.02246732755)
(0.01333982104 -1.940859957e-18 0.01248290519)
(0.006065768938 -2.08923838e-19 0.08897510252)
(0.0006385414404 4.479034534e-19 0.01788680979)
(0.001094535535 7.363327051e-19 0.01787760771)
(0.001715045544 -1.856992353e-17 0.01789033687)
(0.00235604912 -3.231962797e-18 0.01791651834)
(0.002999478432 6.906800829e-19 0.01795397825)
(0.003639087397 7.080668611e-19 0.01800197249)
(0.004271397945 4.83253738e-19 0.01806006553)
(0.004893883724 1.833253286e-18 0.01812792726)
(0.005504432129 -1.362585826e-17 0.01820526645)
(0.006101149724 -9.1694615e-18 0.01829178026)
(0.00668228421 1.011858227e-17 0.01838713183)
(0.007246193527 2.195430896e-17 0.01849093362)
(0.007791336769 1.255796976e-17 0.01860273414)
(0.008316276678 3.343772732e-18 0.01872200668)
(0.008819689079 2.029065674e-19 0.01884813936)
(0.00930037685 1.17033346e-19 0.01898042632)
(0.009757287118 4.332411966e-19 0.01911805977)
(0.01018953076 5.26591861e-19 0.01926012294)
(0.01059640363 5.41362206e-19 0.01940558395)
(0.01097740887 5.259755206e-19 0.01955329042)
(0.01133227996 5.325147364e-19 0.01970196477)
(0.01166100371 5.105599118e-19 0.01985019996)
(0.01196384285 5.014701339e-19 0.01999645528)
(0.01224135732 5.24862591e-19 0.02013905166)
(0.01249442282 5.117631387e-19 0.0202761667)
(0.01272424396 5.208541911e-19 0.02040582405)
(0.01293236371 5.167685263e-19 0.02052586877)
(0.0131206734 5.262044452e-19 0.02063397026)
(0.01329139937 4.833481169e-19 0.02072759027)
(0.01344706781 4.564616222e-19 0.02080393537)
(0.01359045631 4.427784859e-19 0.02085991669)
(0.01372451666 4.597380141e-19 0.02089215472)
(0.01385214296 1.920023514e-19 0.02089675369)
(0.0139759188 1.454491678e-18 0.0208709061)
(0.01409556848 -3.540097748e-18 0.02079859018)
(0.01422226648 -5.24181064e-18 0.02075356267)
(0.01430330532 -5.497660628e-18 0.02025844732)
(0.01438112485 -4.348243988e-18 0.02191296952)
(0.01300796194 -1.832709747e-18 0.01302651215)
(0.005731053072 -6.965436429e-20 0.0987368542)
(0.0006454730484 4.436219282e-19 0.01698029926)
(0.001106507881 7.217227371e-19 0.01697234003)
(0.001733830247 -1.85683996e-17 0.01698799544)
(0.002381821591 -3.243589784e-18 0.01701867838)
(0.003032242176 6.948873072e-19 0.0170622177)
(0.003678791349 7.078027978e-19 0.01711786702)
(0.004317958371 4.853896289e-19 0.01718517865)
(0.004947186056 1.833106285e-18 0.0172638025)
(0.005564327672 -1.36169961e-17 0.01735342432)
(0.006167450577 -9.181398114e-18 0.01745371188)
(0.006754757544 1.010618283e-17 0.01756429135)
(0.007324555629 2.198489432e-17 0.01768472922)
(0.007875247072 1.258302031e-17 0.01781451745)
(0.008405331921 3.34442239e-18 0.01795306059)
(0.008913417682 1.952909806e-19 0.01809966434)
(0.00939823361 1.15381956e-19 0.01825352523)
(0.009858648278 4.316285397e-19 0.01841372146)
(0.01029368953 5.248624479e-19 0.01857920483)
(0.01070256609 5.304850388e-19 0.01874879372)
(0.01108469034 5.191588054e-19 0.01892116723)
(0.0114397015 5.310862302e-19 0.01909486031)
(0.01176748872 5.180356136e-19 0.01926825973)
(0.01206821323 5.19554474e-19 0.01943960059)
(0.01234232881 5.224787014e-19 0.01960696308)
(0.01259059925 5.084129892e-19 0.01976827003)
(0.01281410931 5.158333895e-19 0.01992128232)
(0.01301426569 5.128700692e-19 0.02006357774)
(0.01319280378 5.166834698e-19 0.02019254762)
(0.01335177184 4.757754772e-19 0.0203054023)
(0.01349348549 4.150382284e-19 0.02039912331)
(0.01362047584 4.407851923e-19 0.0204704394)
(0.01373542319 4.354609762e-19 0.02051584692)
(0.01384100775 2.173473579e-19 0.02053152311)
(0.01393976418 1.444690901e-18 0.02051483196)
(0.01403176781 -3.53550164e-18 0.02045307653)
(0.01413146221 -5.331194035e-18 0.02039975764)
(0.01418033748 -5.558193321e-18 0.01998773508)
(0.014120076 -4.240146153e-18 0.02121702842)
(0.01239278202 -1.666266437e-18 0.01393602355)
(0.005312703742 -9.060749524e-21 0.1081714604)
(0.0006533875903 4.366161401e-19 0.01606320253)
(0.001120177991 7.221440401e-19 0.01605650919)
(0.001755297136 -1.856982606e-17 0.01607514904)
(0.002411309168 -3.244804201e-18 0.01611040545)
(0.003069771075 7.001258525e-19 0.0161601052)
(0.00372431392 7.090257668e-19 0.01622350193)
(0.004371386252 4.837546971e-19 0.0163001416)
(0.005008394289 1.838703421e-18 0.01638966014)
(0.005633152025 -1.361278633e-17 0.01649172623)
(0.006243682182 -9.176070721e-18 0.01660598429)
(0.006838136445 1.006570318e-17 0.01673202951)
(0.007414763919 2.199684918e-17 0.0168693883)
(0.007971901935 1.260314095e-17 0.01701750179)
(0.008507978791 3.333597197e-18 0.01717571132)
(0.009021523666 1.887401746e-19 0.01734324537)
(0.009511181311 1.142276984e-19 0.01751920778)
(0.009975730127 4.33357581e-19 0.01770256728)
(0.0104141027 5.305689615e-19 0.0178921483)
(0.01082540804 5.208533827e-19 0.01808662318)
(0.01120895494 5.135978676e-19 0.01828450581)
(0.01156427575 5.355246552e-19 0.01848414668)
(0.01189114977 5.206417578e-19 0.01868372927)
(0.01218962562 5.205915475e-19 0.01888126763)
(0.0124600414 5.171988795e-19 0.01907460478)
(0.01270304187 5.029775418e-19 0.01926141281)
(0.01291958947 5.164488102e-19 0.01943919489)
(0.01311096217 5.078702394e-19 0.01960527372)
(0.01327875082 5.055439683e-19 0.01975677615)
(0.01342484913 4.673601831e-19 0.01989067197)
(0.01355140825 4.313287778e-19 0.02000373872)
(0.01366077536 4.135042029e-19 0.0200925428)
(0.01375543255 4.765858427e-19 0.02015346924)
(0.01383792146 2.453442706e-19 0.02018268628)
(0.01391087707 1.510703794e-18 0.02017753194)
(0.01397420623 -3.598784108e-18 0.02012870735)
(0.01404295651 -5.404891279e-18 0.02006693472)
(0.01405210344 -5.615439628e-18 0.01974842413)
(0.01385449179 -4.056466127e-18 0.02050106365)
(0.01189552561 -1.521401556e-18 0.01515069117)
(0.005009115198 6.121356575e-20 0.1172945876)
(0.0006623058087 4.244068278e-19 0.0151341155)
(0.001135578574 7.088140428e-19 0.0151287034)
(0.00177949141 -1.856993455e-17 0.01515037426)
(0.002444566686 -3.238248271e-18 0.01519026735)
(0.003112129687 7.054551727e-19 0.01524620493)
(0.003775731822 7.101195607e-19 0.01531744239)
(0.004431774032 4.857721806e-19 0.01540352462)
(0.005077620555 1.844813322e-18 0.01550407934)
(0.005711041075 -1.361178757e-17 0.01561876439)
(0.006330008276 -9.185394575e-18 0.01574720746)
(0.006932616584 1.006491212e-17 0.01588897953)
(0.007517050016 2.200643726e-17 0.0160435736)
(0.008081572828 1.261671948e-17 0.01621038657)
(0.008624532353 3.326625888e-18 0.0163887029)
(0.00914436924 1.836984362e-19 0.01657767993)
(0.00963963263 1.14322033e-19 0.01677633442)
(0.01010899888 4.327733746e-19 0.01698353077)
(0.01055129286 5.278587312e-19 0.01719797062)
(0.01096551103 5.262699545e-19 0.01741818426)
(0.01135084569 5.243321982e-19 0.01764252375)
(0.0117067096 5.40661519e-19 0.01786915799)
(0.01203276025 5.271376673e-19 0.01809606962)
(0.01232892285 5.251533028e-19 0.01832105374)
(0.012595411 5.026630374e-19 0.01854171829)
(0.01283274436 4.943177423e-19 0.01875548661)
(0.01304176123 5.142401998e-19 0.01895960492)
(0.01322361848 5.010486881e-19 0.0191511436)
(0.0133797771 4.955231439e-19 0.01932697964)
(0.01351200135 4.573196322e-19 0.01948383575)
(0.01362232469 4.307283374e-19 0.01961829201)
(0.01371297291 4.2249496e-19 0.01972676214)
(0.0137862841 4.814792471e-19 0.01980553626)
(0.01384465179 2.693839133e-19 0.01985072988)
(0.01389089851 1.509362365e-18 0.01985931624)
(0.01392482883 -3.607067827e-18 0.01982606044)
(0.01396071451 -5.457223402e-18 0.01975821169)
(0.01392792449 -5.622828032e-18 0.0195440203)
(0.01360652163 -3.973831555e-18 0.01982862399)
(0.01144878106 -1.395698378e-18 0.01654383911)
(0.004739638089 9.058671547e-20 0.1261346034)
(0.000672244424 4.102652087e-19 0.01419160628)
(0.001152737158 7.050237491e-19 0.01418748677)
(0.001806453413 -1.856602179e-17 0.01421222787)
(0.002481646251 -3.242926016e-18 0.01425681415)
(0.003159382551 6.975739251e-19 0.01431906289)
(0.003833124433 7.085841427e-19 0.01439823335)
(0.00449921945 4.885971241e-19 0.01449387473)
(0.005154985082 1.848860732e-18 0.01460561268)
(0.005798141934 -1.360354422e-17 0.01473310072)
(0.006426607416 -9.192038993e-18 0.01487595723)
(0.00703841257 1.009034903e-17 0.01503373649)
(0.007631669161 2.200675949e-17 0.01520590571)
(0.008204560094 1.263650719e-17 0.01539182506)
(0.008755342345 3.317506998e-18 0.01559072943)
(0.009282357576 1.760295591e-19 0.01580171185)
(0.00978404792 1.082819211e-19 0.01602370845)
(0.01025897549 4.309126659e-19 0.01625548503)
(0.0107058446 5.22961775e-19 0.01649562555)
(0.011123526 5.561491749e-19 0.01674252249)
(0.01151108225 5.310005999e-19 0.01699436959)
(0.01186779358 5.249093016e-19 0.01724915676)
(0.01219318345 5.223368547e-19 0.01750466759)
(0.01248704284 5.210491354e-19 0.0177584793)
(0.0127494522 4.574979368e-19 0.01800796511)
(0.01298080023 4.926029663e-19 0.01825029929)
(0.01318179857 5.154217567e-19 0.01848246876)
(0.01335348596 4.982740036e-19 0.01870128671)
(0.01349721347 4.935026395e-19 0.01890338599)
(0.0136146381 4.585464958e-19 0.01908523423)
(0.01370770754 4.450802638e-19 0.01924319931)
(0.01377858953 4.440584872e-19 0.01937353975)
(0.01382958026 4.916767969e-19 0.01947245359)
(0.01386298511 3.193068796e-19 0.01953603072)
(0.01388156667 1.467510663e-18 0.0195606352)
(0.01388574899 -3.513314533e-18 0.01954505504)
(0.01388896885 -5.56928152e-18 0.01947448302)
(0.01381886665 -5.597386029e-18 0.01937177925)
(0.01337980165 -3.903282438e-18 0.01919929733)
(0.01104069565 -1.271592645e-18 0.01806686005)
(0.0044968582 1.245376563e-19 0.1347209761)
(0.0006832176609 4.424458654e-19 0.01323422051)
(0.001171677824 7.190477772e-19 0.01323140299)
(0.001836219833 -1.856807427e-17 0.01325924814)
(0.002522597319 -3.245831217e-18 0.01330857805)
(0.003211593242 7.028619813e-19 0.01337720616)
(0.003896572132 7.006720924e-19 0.0134643985)
(0.004573823448 4.778732446e-19 0.01356971444)
(0.005240613825 1.843927198e-18 0.01369278436)
(0.005894610425 -1.358869786e-17 0.01383326462)
(0.006533670371 -9.214718863e-18 0.01399077245)
(0.00715575531 1.0028456e-17 0.01416485395)
(0.007758897586 2.201601963e-17 0.01435495915)
(0.00834119036 1.263057533e-17 0.01456041998)
(0.00890079065 3.290386094e-18 0.01478043001)
(0.009435930385 1.454304547e-19 0.0150140258)
(0.009944932908 8.402539528e-20 0.01526007004)
(0.01042623343 4.088704561e-19 0.01551723643)
(0.01087840244 5.086908456e-19 0.01578399677)
(0.01130017126 5.069723173e-19 0.01605861038)
(0.01169045891 5.116471891e-19 0.01633911616)
(0.01204839966 5.294189984e-19 0.01662332742)
(0.01237337027 5.07574116e-19 0.01690882986)
(0.01266501613 5.05616985e-19 0.0171929827)
(0.01292327538 5.081266891e-19 0.01747292297)
(0.01314839955 5.035662368e-19 0.01774557335)
(0.01334096996 5.036191829e-19 0.01800765703)
(0.01350190804 4.872604384e-19 0.01825571988)
(0.01363246949 4.891671665e-19 0.01848614032)
(0.0137342242 4.4729235e-19 0.01869513227)
(0.01380905324 4.205941737e-19 0.0188788202)
(0.01385910025 4.110945794e-19 0.01903328952)
(0.0138866854 4.690166957e-19 0.01915461753)
(0.01389417321 2.798387489e-19 0.01923889449)
(0.01388440625 1.446567151e-18 0.01928179762)
(0.01385902676 -3.508624316e-18 0.0192850233)
(0.01382840195 -5.646852737e-18 0.01921662629)
(0.01372437244 -5.644962864e-18 0.01922499412)
(0.01318897417 -3.78261946e-18 0.01860755403)
(0.01067847971 -1.181073938e-18 0.01971158937)
(0.004273789961 2.052466731e-19 0.1430755353)
(0.0006952378664 4.373282509e-19 0.01226048438)
(0.001192421855 7.063140655e-19 0.01225897751)
(0.001868823956 -1.857222706e-17 0.01228995579)
(0.002567466179 -3.238681465e-18 0.01234407324)
(0.003268823065 7.019953566e-19 0.01241914214)
(0.003966154377 6.991309245e-19 0.01251443907)
(0.0046556878 4.78873175e-19 0.01262954004)
(0.005334635815 1.845709998e-18 0.01276408807)
(0.006000608233 -1.358359232e-17 0.01291775023)
(0.006651397164 -9.234930773e-18 0.01309015174)
(0.007284889004 1.002311432e-17 0.01328084009)
(0.007899029518 2.202578408e-17 0.01348925783)
(0.008491813605 1.264195843e-17 0.01371471829)
(0.009061288479 3.275511992e-18 0.01395638304)
(0.009605565227 1.294809859e-19 0.01421324101)
(0.01012283616 7.595979568e-20 0.01448408953)
(0.01061139639 4.030363256e-19 0.01476751741)
(0.01106966865 5.06402732e-19 0.01506189048)
(0.01149623045 5.051773546e-19 0.01536533983)
(0.01188984277 5.050193635e-19 0.01567575311)
(0.01224947964 5.293251539e-19 0.01599076916)
(0.01257435759 5.073872009e-19 0.01630777632)
(0.01286396433 5.047906509e-19 0.01662391458)
(0.01311808548 5.258767803e-19 0.01693608159)
(0.01333682772 5.140343516e-19 0.01724094374)
(0.01352063768 5.07923423e-19 0.01753495395)
(0.01367031828 4.952870266e-19 0.01781437727)
(0.01378703331 4.992727812e-19 0.0180753172)
(0.01387228915 4.649114689e-19 0.01831372807)
(0.01392791778 4.32335761e-19 0.01852546982)
(0.01395605967 4.241363399e-19 0.01870641298)
(0.01395911224 4.984314231e-19 0.01885246605)
(0.01393957918 3.527357065e-19 0.01895969208)
(0.01390046957 1.494980029e-18 0.01902304064)
(0.01384397266 -3.528407316e-18 0.01904615275)
(0.01378016995 -5.649436318e-18 0.01898433962)
(0.01364792159 -5.694196983e-18 0.01909732006)
(0.01302851395 -3.735922022e-18 0.01803604252)
(0.0103503488 -1.072941793e-18 0.02148644439)
(0.004065396756 2.187222556e-19 0.1512154725)
(0.0007083156268 4.378539194e-19 0.01126890721)
(0.001214987722 7.02993373e-19 0.01126871972)
(0.001904295257 -1.857631803e-17 0.01130285529)
(0.002616294927 -3.239613899e-18 0.01136179651)
(0.003331129359 7.021884073e-19 0.0114433585)
(0.00404194744 7.026531226e-19 0.0115468332)
(0.004744912425 4.841827927e-19 0.01167182051)
(0.005437180149 1.849735589e-18 0.01181798529)
(0.00611629968 -1.357491703e-17 0.01198501413)
(0.006779993723 -9.258968969e-18 0.0121725505)
(0.007426067758 1.004956632e-17 0.01238015402)
(0.008052373823 2.201644294e-17 0.01260727072)
(0.008656799897 1.26479307e-17 0.01285320621)
(0.009237273245 3.282200496e-18 0.01311710057)
(0.009791772572 1.180722787e-19 0.01339790501)
(0.01031834635 7.286695791e-20 0.01369436063)
(0.01081513575 3.996567906e-19 0.01400497941)
(0.01128040104 5.136417998e-19 0.01432802799)
(0.01171255067 4.737490323e-19 0.0146615146)
(0.01211017214 4.705196145e-19 0.01500317938)
(0.0124720639 5.220287296e-19 0.01535048868)
(0.01279726762 5.160753872e-19 0.0157006334)
(0.01308509985 4.991109915e-19 0.01605053199)
(0.01333518194 5.659119011e-19 0.01639683816)
(0.01354746614 5.454549952e-19 0.01673595538)
(0.01372225858 5.127880654e-19 0.01706405667)
(0.01386024065 4.949686621e-19 0.01737711142)
(0.01396248339 4.682903489e-19 0.0176709237)
(0.01403043944 4.912613357e-19 0.01794116489)
(0.01406591974 4.767604644e-19 0.01818341776)
(0.01407109154 4.816356993e-19 0.01839328089)
(0.01404846749 5.180293417e-19 0.01856642958)
(0.01400075468 4.257316351e-19 0.01869884815)
(0.01393108705 1.490064592e-18 0.01878484661)
(0.01384146023 -3.527122374e-18 0.01882987943)
(0.01374426558 -5.705460535e-18 0.01877546142)
(0.01358606079 -5.72694611e-18 0.01898499179)
(0.01289140545 -3.729269227e-18 0.01747229849)
(0.01005057164 -8.939464952e-19 0.02339607697)
(0.003869834668 2.671464756e-19 0.159155385)
(0.0007224595747 4.401785055e-19 0.01025798402)
(0.001239390647 7.127573522e-19 0.01025912541)
(0.001942658512 -1.857306892e-17 0.01029643679)
(0.002669119999 -3.233570383e-18 0.01036022846)
(0.003398563425 7.071854477e-19 0.0104483238)
(0.004124021776 7.043815162e-19 0.01056003607)
(0.004841592291 4.879835942e-19 0.01069499697)
(0.005548372543 1.861100993e-18 0.01085290402)
(0.006241848043 -1.356557048e-17 0.01103347342)
(0.006919668076 -9.270654693e-18 0.01123637823)
(0.007579551735 9.995304575e-18 0.01146120236)
(0.008219250206 2.204746327e-17 0.01170740766)
(0.008836535715 1.267669872e-17 0.01197430426)
(0.009429205083 3.268036363e-18 0.01226102262)
(0.009995092581 1.209245371e-19 0.01256648741)
(0.01053208939 8.217608899e-20 0.01288939369)
(0.01103816805 4.263421264e-19 0.0132281856)
(0.01151141078 5.233101357e-19 0.01358103815)
(0.01195004071 5.263705896e-19 0.01394584254)
(0.01235245526 5.355791713e-19 0.01432019543)
(0.0127172608 5.508095967e-19 0.01470139252)
(0.01304330798 5.357904191e-19 0.01508642685)
(0.0133297269 5.397332378e-19 0.01547199217)
(0.01357596045 5.405096245e-19 0.01585449262)
(0.01378179485 5.303345658e-19 0.01623005996)
(0.01394738807 5.298733088e-19 0.01659457438)
(0.01407329529 5.198487084e-19 0.0169436937)
(0.01416048991 5.271753261e-19 0.01727289756)
(0.01421037121 4.991077076e-19 0.01757753933)
(0.01422475483 4.864428105e-19 0.01785289434)
(0.01420586165 4.808862983e-19 0.01809424606)
(0.01415632774 5.359661496e-19 0.01829696181)
(0.01407906282 3.977184621e-19 0.01845689816)
(0.0139775245 1.569660726e-18 0.01856774471)
(0.01385401367 -3.602883056e-18 0.01863696935)
(0.01372099243 -5.751797145e-18 0.01859052194)
(0.0135293417 -5.787291684e-18 0.01889050931)
(0.01274267623 -3.62713639e-18 0.01692136584)
(0.009754114913 -8.931398281e-19 0.02542451584)
(0.003688542516 2.924185056e-19 0.1669103999)
(0.0007376759886 4.400213734e-19 0.00922619861)
(0.001265641863 7.121456613e-19 0.009228679704)
(0.001983932527 -1.857749578e-17 0.009269178649)
(0.002725970302 -3.239731954e-18 0.009337835555)
(0.003471168076 7.102378884e-19 0.009432488942)
(0.004212439033 7.108086037e-19 0.00955248063)
(0.004945813909 4.923556171e-19 0.009697482747)
(0.005668331411 1.859546801e-18 0.009867238197)
(0.006377411369 -1.358412221e-17 0.01006150418)
(0.007070626028 -9.293390607e-18 0.0102799962)
(0.007745602816 1.001162468e-17 0.01052233603)
(0.008399984936 2.206552216e-17 0.0107880153)
(0.009031419826 1.269189477e-17 0.01107636245)
(0.009637562967 3.270299903e-18 0.01138651165)
(0.01021609154 1.109870798e-19 0.01171737359)
(0.01076472519 8.498508436e-20 0.01206760875)
(0.01128125224 4.217304875e-19 0.01243560349)
(0.01176356014 5.217327409e-19 0.01281944956)
(0.01220966927 5.294166445e-19 0.01321692761)
(0.01261776907 4.873846157e-19 0.01362549511)
(0.01298625591 5.336308472e-19 0.01404227909)
(0.01331377169 5.391496673e-19 0.01446407401)
(0.01359924254 5.31165538e-19 0.01488734551)
(0.01384191598 5.336016107e-19 0.01530824182)
(0.01404139795 5.510757867e-19 0.01572261132)
(0.01419768765 5.392039267e-19 0.01612602603)
(0.01431120699 5.321690615e-19 0.01651381402)
(0.01438282704 5.113560941e-19 0.01688110583)