/*--------------------------------*- C++ -*----------------------------------*\
| =========                 |                                                 |
| \\      /  F ield         | OpenFOAM: The Open Source CFD Toolbox           |
|  \\    /   O peration     | Version:  v1912                                 |
|   \\  /    A nd           | Website:  www.openfoam.com                      |
|    \\/     M anipulation  |                                                 |
\*---------------------------------------------------------------------------*/
FoamFile
{
    version     2.0;
    format      ascii;
    class       volVectorField;
    location    "0.8";
    object      U.liquid_0;
}
// * * * * * * * * * * * * * * * * * * * * * * * * * * * * * * * * * * * * * //

dimensions      [0 1 -1 0 0 0 0];


internalField   nonuniform List<vector> 
4800
(
(0.0005730823745 4.521045567e-19 -0.0004048013204)
(0.0009917347251 6.665744104e-19 -0.000411132978)
(0.001561931591 -1.755005508e-17 -0.0004111126394)
(0.002150712227 -2.845733132e-18 -0.0004093874019)
(0.002741202358 6.639146975e-19 -0.0004066729836)
(0.003327661692 6.519882545e-19 -0.0004031127954)
(0.003906902284 4.54651511e-19 -0.0003987747913)
(0.004476614778 1.701108738e-18 -0.000393695122)
(0.005034873095 -1.315129291e-17 -0.0003879027019)
(0.005579962862 -8.290967569e-18 -0.0003814256714)
(0.006110312529 1.011094262e-17 -0.000374292644)
(0.006624465902 2.080330386e-17 -0.0003665354707)
(0.007121075764 1.125316497e-17 -0.0003581905745)
(0.007598907793 2.786323868e-18 -0.0003492998958)
(0.008056850458 1.30266713e-19 -0.0003399116748)
(0.008493928797 1.387713865e-19 -0.0003300811335)
(0.00890932097 4.242796133e-19 -0.0003198710835)
(0.009302376947 5.246620877e-19 -0.0003093524767)
(0.009672638936 5.235169584e-19 -0.0002986049143)
(0.01001986332 4.955526724e-19 -0.0002877171333)
(0.01034404398 4.993464962e-19 -0.0002767875023)
(0.01064543711 5.078852845e-19 -0.0002659245782)
(0.0109245877 5.082956845e-19 -0.0002552477995)
(0.01118235831 4.92545832e-19 -0.0002448884589)
(0.01141996185 5.173532392e-19 -0.0002349916265)
(0.01163900029 5.003936738e-19 -0.0002257184691)
(0.01184150819 4.892606119e-19 -0.00021724766)
(0.01203000865 5.333535756e-19 -0.0002097826542)
(0.01220759261 5.38637589e-19 -0.0002035611411)
(0.01237803012 5.251944778e-19 -0.0001988683793)
(0.01254593027 5.055216458e-19 -0.0001960587283)
(0.01271702292 4.906365353e-19 -0.0001956193973)
(0.01289895689 2.986853457e-19 -0.0001984625399)
(0.01310103285 1.401607939e-18 -0.0002049339102)
(0.01334424233 -3.662990892e-18 -0.0002227444872)
(0.01362093269 -4.943219404e-18 -0.0002253372637)
(0.01410931719 -4.901812291e-18 -0.0003641685132)
(0.01409337692 -3.893444663e-18 0.0001105944057)
(0.01838686996 -2.530340434e-18 -0.003263903647)
(0.0113090656 -6.050554151e-19 0.007710827853)
(0.0006120957153 4.804282643e-19 -0.001241961458)
(0.001049962335 7.134962972e-19 -0.001255010918)
(0.00164682241 -1.851997569e-17 -0.001254339053)
(0.0022641717 -3.205979776e-18 -0.001249034557)
(0.00288403446 6.854728495e-19 -0.001240826961)
(0.003500253241 7.092774073e-19 -0.001230112904)
(0.00410947261 4.893209914e-19 -0.001217076493)
(0.004709292844 1.825265031e-18 -0.001201818414)
(0.00529774292 -1.361372768e-17 -0.001184429215)
(0.005873086257 -9.084528439e-18 -0.001164989223)
(0.006433734026 1.00973822e-17 -0.001143582695)
(0.006978216929 2.18321101e-17 -0.001120304219)
(0.007505177149 1.242430359e-17 -0.001095262348)
(0.008013371213 3.320795927e-18 -0.001068582363)
(0.008501679353 1.99071905e-19 -0.001040408603)
(0.008969119099 1.1965241e-19 -0.001010906517)
(0.009414861884 4.407731253e-19 -0.0009802644987)
(0.009838251951 5.45652937e-19 -0.0009486955548)
(0.01023882713 5.439647451e-19 -0.0009164388511)
(0.01061634119 5.182990757e-19 -0.0008837611834)
(0.0109707877 5.388776073e-19 -0.0008509584706)
(0.0113024253 5.371758004e-19 -0.0008183574282)
(0.01161180473 5.412133562e-19 -0.0007863176282)
(0.01189979806 5.240847938e-19 -0.0007552343983)
(0.01216763126 5.093855377e-19 -0.0007255441372)
(0.01241692207 5.394222638e-19 -0.0006977313152)
(0.01264972389 5.629361837e-19 -0.0006723333288)
(0.01286858018 5.32741356e-19 -0.0006499605921)
(0.01307659829 5.176790178e-19 -0.0006313236957)
(0.0132775408 5.042846567e-19 -0.0006172648271)
(0.01347593901 5.220873079e-19 -0.0006088121997)
(0.0136773554 5.345042943e-19 -0.0006073986952)
(0.01388889747 2.736727675e-19 -0.0006155320598)
(0.01411932154 1.444223041e-18 -0.0006344589828)
(0.01438277515 -3.403961062e-18 -0.0006828338835)
(0.01467956295 -4.854400742e-18 -0.00069523418)
(0.01517678103 -5.271231551e-18 -0.001099422965)
(0.01538373612 -4.46918646e-18 0.0001682997458)
(0.01706079255 -2.714787959e-18 -0.007882236337)
(0.009289417695 -6.990626368e-19 0.02190664981)
(0.0006157465217 4.440613323e-19 -0.002109257846)
(0.0010552574 7.180729148e-19 -0.002122417635)
(0.001653974686 -1.852627805e-17 -0.002120118046)
(0.002273085393 -3.216108434e-18 -0.002111028598)
(0.002894806192 6.928173634e-19 -0.00209724643)
(0.003512969143 7.071250181e-19 -0.002079341696)
(0.00412419109 4.895665881e-19 -0.002057583887)
(0.004726061408 1.828930795e-18 -0.00203213483)
(0.005316594762 -1.360812972e-17 -0.002003137402)
(0.005894031316 -9.103785609e-18 -0.001970721264)
(0.006456764765 1.00923042e-17 -0.001935024616)
(0.007003309913 2.185302719e-17 -0.001896203403)
(0.007532293247 1.246850616e-17 -0.001854437111)
(0.008042455216 3.304045411e-18 -0.001809933323)
(0.008532659304 2.081958978e-19 -0.001762931604)
(0.009001905468 1.188269901e-19 -0.001713706916)
(0.009449346641 4.514339706e-19 -0.001662572701)
(0.009874307579 5.35151708e-19 -0.001609883682)
(0.01027630556 5.318636014e-19 -0.001556038442)
(0.01065507263 5.351380988e-19 -0.001501481867)
(0.01101057922 5.680867772e-19 -0.001446707599)
(0.01134305906 5.520714867e-19 -0.001392260734)
(0.01165303551 5.294837868e-19 -0.001338741106)
(0.01194134953 4.920033696e-19 -0.001286807845)
(0.01220918992 5.091009385e-19 -0.001237187036)
(0.01245812753 5.318184436e-19 -0.001190683158)
(0.01269015496 5.224837016e-19 -0.001148187789)
(0.01290773078 5.30147933e-19 -0.001110706916)
(0.01311383586 5.248474897e-19 -0.001079403165)
(0.01331204812 4.967081049e-19 -0.001055638399)
(0.01350662028 4.679200214e-19 -0.001041036148)
(0.01370256887 4.353953904e-19 -0.001037802895)
(0.01390587075 3.228564734e-19 -0.001049546742)
(0.01412375609 1.418530314e-18 -0.00107859581)
(0.01436618281 -3.317902473e-18 -0.001148269187)
(0.01463401023 -4.879455317e-18 -0.001173417494)
(0.01500060133 -5.267760784e-18 -0.001762920752)
(0.01520036047 -4.574776802e-18 -5.992579169e-06)
(0.01574296962 -2.393503679e-18 -0.009752746806)
(0.008043956365 -5.669952296e-19 0.0340499864)
(0.0006192623916 4.477648768e-19 -0.002981616448)
(0.001061031458 7.02979607e-19 -0.002994050406)
(0.001662578552 -1.852352811e-17 -0.002989558176)
(0.002284426764 -3.218262905e-18 -0.002976518456)
(0.002908862558 6.887907921e-19 -0.002957103608)
(0.003529738973 7.078803139e-19 -0.002931978103)
(0.004143665951 4.902213818e-19 -0.002901475152)
(0.004748214365 1.828119887e-18 -0.002865813797)
(0.005341378422 -1.360429019e-17 -0.002825176603)
(0.005921378976 -9.110842903e-18 -0.00277974114)
(0.006486587509 1.009626655e-17 -0.002729698063)
(0.007035494974 2.18883528e-17 -0.002675263111)
(0.007566702266 1.247819084e-17 -0.002616685165)
(0.008078922399 3.325131466e-18 -0.002554252615)
(0.008570989502 2.061676479e-19 -0.002488298793)
(0.009041872257 1.264604712e-19 -0.002419206767)
(0.009490690439 4.437050493e-19 -0.002347413664)
(0.009916733795 5.342899627e-19 -0.002273414587)
(0.01031948275 5.45273744e-19 -0.002197766196)
(0.01069863061 5.390413004e-19 -0.002121090051)
(0.01105410693 5.740686604e-19 -0.002044075914)
(0.01138610198 5.399397772e-19 -0.001967485263)
(0.01169509218 5.420888109e-19 -0.00189215547)
(0.01198186636 5.27070035e-19 -0.00181900541)
(0.01224755305 5.165967275e-19 -0.001749044341)
(0.01249364998 5.337620311e-19 -0.001683386714)
(0.01272205752 5.26453955e-19 -0.001623264188)
(0.0129351109 5.428819687e-19 -0.001570052528)
(0.01313561462 5.18722318e-19 -0.001525324284)
(0.01332688844 4.944055711e-19 -0.001490902221)
(0.01351282101 4.746637041e-19 -0.001468919727)
(0.01369780521 4.452777071e-19 -0.001462072538)
(0.01388663412 2.149798469e-19 -0.001474549686)
(0.0140845304 1.434630374e-18 -0.001509399331)
(0.01429659624 -3.390769326e-18 -0.001591165699)
(0.01452259098 -4.98985812e-18 -0.001623916937)
(0.01476288831 -5.356491803e-18 -0.002276436295)
(0.01494138328 -4.505263481e-18 -0.0002994854888)
(0.01510018548 -2.205658561e-18 -0.01047003435)
(0.007504823521 -4.259603098e-19 0.04503201598)
(0.0006234957558 4.498432473e-19 -0.003859448778)
(0.00106815972 7.227321426e-19 -0.003870893732)
(0.001673513102 -1.852431588e-17 -0.00386389579)
(0.002299167701 -3.226923943e-18 -0.003846745206)
(0.002927376802 6.938747491e-19 -0.003821612307)
(0.003551997315 7.109635406e-19 -0.003789204918)
(0.004169631113 4.875446351e-19 -0.003749900488)
(0.004777832081 1.829245698e-18 -0.003703961214)
(0.005374573026 -1.360345731e-17 -0.00365160772)
(0.005958051018 -9.128251006e-18 -0.003593060553)
(0.006526610409 1.006522848e-17 -0.00352855958)
(0.00707871195 2.189327549e-17 -0.003458377595)
(0.007612923415 1.249498466e-17 -0.003382830351)
(0.008127921777 3.317316243e-18 -0.003302284641)
(0.008622502251 2.065839701e-19 -0.00321716527)
(0.009095591796 1.270682327e-19 -0.003127961231)
(0.009546265765 4.448064577e-19 -0.003035231259)
(0.009973766891 5.477523006e-19 -0.002939608848)
(0.01037752607 5.41908684e-19 -0.002841806779)
(0.01075718449 5.314249919e-19 -0.00274262129)
(0.01111261687 5.377950556e-19 -0.00264293605)
(0.01144395532 5.19690531e-19 -0.002543726248)
(0.01175161379 5.245434891e-19 -0.002446063255)
(0.01203631259 5.268615573e-19 -0.002351120562)
(0.01229910228 5.164455746e-19 -0.002260182597)
(0.012541387 5.239431325e-19 -0.002174660859)
(0.01276495193 5.202361886e-19 -0.00209611015)
(0.01297198424 5.367196912e-19 -0.0020262465)
(0.01316508557 5.095551221e-19 -0.001967004249)
(0.01334728406 4.696653585e-19 -0.001920592579)
(0.01352204553 4.239068623e-19 -0.001889557799)
(0.01369319136 4.812050983e-19 -0.001876890099)
(0.01386453493 2.396715188e-19 -0.001886873561)
(0.01403966387 1.445410515e-18 -0.001922710412)
(0.01421996373 -3.465425312e-18 -0.002007321638)
(0.01440740558 -5.081127841e-18 -0.002043174677)
(0.01456594999 -5.40288435e-18 -0.002675238186)
(0.01472381127 -4.379864647e-18 -0.0006683467465)
(0.01464189361 -2.087585747e-18 -0.01068018713)
(0.007144081347 -2.979831164e-19 0.05545696898)
(0.000628553771 4.437666875e-19 -0.004743844147)
(0.001076766866 7.205343344e-19 -0.004754166823)
(0.001686876047 -1.852289117e-17 -0.004744481328)
(0.002317363097 -3.219792507e-18 -0.004723091339)
(0.00295038141 6.867971204e-19 -0.004692152467)
(0.003579769193 7.056769132e-19 -0.004652389882)
(0.004202113466 4.871288815e-19 -0.004604210117)
(0.004814948394 1.829886761e-18 -0.004547908397)
(0.00541622245 -1.360666027e-17 -0.004483738483)
(0.006004104362 -9.127622941e-18 -0.004411959226)
(0.00657690595 1.006235986e-17 -0.004332855629)
(0.007133051283 2.187326211e-17 -0.004246753958)
(0.007671067429 1.248885622e-17 -0.00415403348)
(0.008189586718 3.326113241e-18 -0.004055136205)
(0.008687355888 2.03964845e-19 -0.003950575371)
(0.009163249748 1.239346425e-19 -0.003840943013)
(0.009616288007 4.392098818e-19 -0.003726916748)
(0.01004565445 5.317509951e-19 -0.003609265871)
(0.01045071789 5.412897614e-19 -0.00348885679)
(0.01083105433 5.284398778e-19 -0.003366657907)
(0.01118647004 5.412319813e-19 -0.003243744104)
(0.01151702502 5.211988837e-19 -0.003121301116)
(0.01182305642 5.290598194e-19 -0.003000630248)
(0.01210520139 5.192343089e-19 -0.002883153991)
(0.01236441801 5.082602191e-19 -0.002770423414)
(0.01260200282 5.172842138e-19 -0.002664132905)
(0.01281961047 5.121874506e-19 -0.002566141877)
(0.01301926719 5.360362796e-19 -0.002478478845)
(0.01320336704 4.814625007e-19 -0.00240339421)
(0.01337465575 4.4706053e-19 -0.002343411471)
(0.01353620023 4.472557465e-19 -0.002301383542)
(0.01369132387 4.819094608e-19 -0.002280517905)
(0.01384322262 2.2066786e-19 -0.002284895515)
(0.0139946786 1.417449394e-18 -0.002317566504)
(0.01414545901 -3.465302546e-18 -0.002398128551)
(0.01430230378 -5.124559094e-18 -0.002437353912)
(0.01441502942 -5.458658397e-18 -0.003007950027)
(0.01459307244 -4.337915553e-18 -0.001094911806)
(0.0142915746 -1.927763442e-18 -0.01051392262)
(0.006841540269 -1.998918855e-19 0.06547117827)
(0.000634509574 4.474413204e-19 -0.005636019214)
(0.001086942656 7.336222029e-19 -0.005645151239)
(0.001702753774 -1.852054937e-17 -0.005632665159)
(0.002339082732 -3.217040133e-18 -0.00560693452)
(0.002977935981 6.91176399e-19 -0.005570104366)
(0.003613112776 7.064480695e-19 -0.005522905746)
(0.004241176575 4.829444956e-19 -0.005465763612)
(0.004859636954 1.827827064e-18 -0.005398998278)
(0.00546641382 -1.359796246e-17 -0.005322890884)
(0.00605964265 -9.141855038e-18 -0.005237733509)
(0.006637596994 1.011280413e-17 -0.005143851574)
(0.007198657544 2.190995942e-17 -0.005041620433)
(0.007741302939 1.251555374e-17 -0.004931478713)
(0.008264112147 3.318063745e-18 -0.004813939662)
(0.008765773774 1.987532567e-19 -0.004689601165)
(0.009245099949 1.190164389e-19 -0.004559154717)
(0.009701043437 4.340277135e-19 -0.004423393457)
(0.01013271711 5.26477497e-19 -0.004283219329)
(0.01053941517 5.407067944e-19 -0.004139649387)
(0.0109206355 5.252459209e-19 -0.003993821286)
(0.01127610277 5.318669583e-19 -0.003846998114)
(0.01160579159 5.100059625e-19 -0.003700572777)
(0.0119099492 5.011006123e-19 -0.003556072344)
(0.01218911698 5.244566696e-19 -0.003415162784)
(0.01244414926 5.112715666e-19 -0.00327965406)
(0.01267622658 5.202121327e-19 -0.003151510786)
(0.01288686594 5.161050512e-19 -0.003032876991)
(0.01307793071 5.256230192e-19 -0.002926072532)
(0.01325161743 4.824463171e-19 -0.002833625604)
(0.01341042135 4.558264495e-19 -0.002758319536)
(0.01355708771 4.425143869e-19 -0.002703232486)
(0.01369453387 4.591616589e-19 -0.002671733817)
(0.01382562307 1.911973292e-19 -0.002667711557)
(0.01395290941 1.454927217e-18 -0.002693985785)
(0.01407614385 -3.509885281e-18 -0.002766487625)
(0.01420621897 -5.246903199e-18 -0.002811754922)
(0.01429122389 -5.496907427e-18 -0.003306363648)
(0.01459824153 -4.338192252e-18 -0.001650855959)
(0.01410169008 -1.820047089e-18 -0.009936566816)
(0.006586425489 -6.059408923e-20 0.07513549691)
(0.0006414049562 4.431399398e-19 -0.006537271816)
(0.001098743707 7.189870553e-19 -0.006545174933)
(0.001721209607 -1.85192433e-17 -0.006529811722)
(0.002364387568 -3.228519478e-18 -0.0064996584)
(0.003010100415 6.954990592e-19 -0.006456855648)
(0.003652091882 7.061092256e-19 -0.006402135631)
(0.004286893158 4.850685431e-19 -0.006335934179)
(0.004911983623 1.827518862e-18 -0.006258590043)
(0.005525249799 -1.358920853e-17 -0.006170405822)
(0.006124788722 -9.153439234e-18 -0.006071701248)
(0.006708829732 1.010089928e-17 -0.005962836798)
(0.007275703285 2.194057787e-17 -0.005844231756)
(0.007823831747 1.254002121e-17 -0.005716379145)
(0.008351731878 3.31854238e-18 -0.005579858676)
(0.00885802436 1.911808264e-19 -0.005435348337)
(0.009341447988 1.174087598e-19 -0.0052836348)
(0.009800877159 4.326053547e-19 -0.005125622742)
(0.01023534178 5.243505167e-19 -0.004962343075)
(0.01064404891 5.299836397e-19 -0.004794960093)
(0.0110264055 5.188316986e-19 -0.004624777513)
(0.01138204174 5.308779044e-19 -0.00445324349)
(0.01171083421 5.175115611e-19 -0.004281954795)
(0.01201292824 5.192878132e-19 -0.004112660424)
(0.01228875854 5.220130996e-19 -0.003947264994)
(0.01253906695 5.078407215e-19 -0.003787831275)
(0.01276491362 5.15323352e-19 -0.003636584836)
(0.01296767848 5.123376056e-19 -0.003495935504)
(0.01314906853 5.166455168e-19 -0.003368480064)
(0.01331110201 4.749488543e-19 -0.003256997063)
(0.01345606357 4.14192218e-19 -0.003164494501)
(0.01358645283 4.401520003e-19 -0.003094232716)
(0.01370491618 4.347963353e-19 -0.003049703656)
(0.01381409955 2.167889822e-19 -0.003034718492)
(0.01391650436 1.445340179e-18 -0.00305193268)
(0.01401224637 -3.50618015e-18 -0.003113974541)
(0.01411545015 -5.336608256e-18 -0.003167571934)
(0.01416869408 -5.556983822e-18 -0.003579103802)
(0.01452511803 -4.230095524e-18 -0.002347899685)
(0.01385708102 -1.652940955e-18 -0.008968577998)
(0.006351222015 -3.418926293e-22 0.08448462711)
(0.0006492676536 4.367131604e-19 -0.007448948905)
(0.001112210489 7.192977731e-19 -0.007455599783)
(0.001742294343 -1.852083207e-17 -0.007437303015)
(0.002393333397 -3.229592462e-18 -0.007402657946)
(0.003046935517 7.006934602e-19 -0.0073538054)
(0.003696775451 7.07272614e-19 -0.007291476338)
(0.00433934431 4.834615548e-19 -0.007216111571)
(0.004972085681 1.833126422e-18 -0.007128062321)
(0.005592847697 -1.358571883e-17 -0.007027646611)
(0.006199683659 -9.148202082e-18 -0.006915205715)
(0.006790772653 1.006149141e-17 -0.006791129117)
(0.007364387944 2.195337976e-17 -0.006655874086)
(0.007918887658 1.25599106e-17 -0.006509982237)
(0.008452717371 3.307029553e-18 -0.006354094158)
(0.00896441989 1.844445859e-19 -0.006188962607)
(0.009452649839 1.163018295e-19 -0.006015464441)
(0.009916191654 4.340915907e-19 -0.005834611266)
(0.01035398007 5.305082179e-19 -0.00564755878)
(0.01076512237 5.200487063e-19 -0.005455614751)
(0.01114892176 5.134511899e-19 -0.005260245568)
(0.01150490125 5.348818861e-19 -0.005063081355)
(0.01183282718 5.198857851e-19 -0.004865919751)
(0.01213273172 5.198402444e-19 -0.004670728526)
(0.01240493331 5.168828532e-19 -0.00447964729)
(0.01265005408 5.030026875e-19 -0.004294987533)
(0.01286903114 5.161168633e-19 -0.004119230734)
(0.01306311464 5.074590369e-19 -0.00395504014)
(0.01323386629 5.051051712e-19 -0.003805276026)
(0.01338314925 4.665978161e-19 -0.003672956472)
(0.01351308288 4.311900688e-19 -0.003561293196)
(0.01362598325 4.127538879e-19 -0.003473709638)
(0.01372430109 4.758976833e-19 -0.003413809569)
(0.01381054249 2.44600725e-19 -0.003385407765)
(0.01388729699 1.511256933e-18 -0.003391181457)
(0.01395452132 -3.569348699e-18 -0.00344039681)
(0.01402694332 -5.411374891e-18 -0.003502495789)
(0.01404081344 -5.613732915e-18 -0.003820664982)
(0.01434092784 -4.045753876e-18 -0.003065745982)
(0.01352516962 -1.509071334e-18 -0.007754462038)
(0.006131811733 6.859969793e-20 0.09353567106)
(0.0006581180998 4.239545825e-19 -0.008372431454)
(0.001127374534 7.060839279e-19 -0.008377814424)
(0.00176605107 -1.852105096e-17 -0.008356539412)
(0.002425972182 -3.222758923e-18 -0.008317342602)
(0.003088502284 7.059860229e-19 -0.00826236721)
(0.003747235982 7.084298082e-19 -0.008192341137)
(0.004398617634 4.853043896e-19 -0.008107704849)
(0.005040049828 1.839159653e-18 -0.008008816187)
(0.005669337415 -1.358550602e-17 -0.007896002343)
(0.006284484711 -9.157011961e-18 -0.007769619414)
(0.0068836145 1.006157405e-17 -0.007630079083)
(0.007464935833 2.196336098e-17 -0.007477869821)
(0.008026734521 1.257267425e-17 -0.007313575162)
(0.008567375823 3.299661406e-18 -0.007137890112)
(0.00908531453 1.796887883e-19 -0.00695163606)
(0.009579110036 1.164542982e-19 -0.006755774316)
(0.01004744497 4.334829148e-19 -0.006551418175)
(0.01048914643 5.273323835e-19 -0.006339843439)
(0.01090320909 5.257529628e-19 -0.006122497261)
(0.01128881947 5.23813807e-19 -0.005901005201)
(0.01164538062 5.402942762e-19 -0.005677176397)
(0.01197253658 5.266539803e-19 -0.005453006856)
(0.01227019551 5.246482048e-19 -0.005230680907)
(0.01253855062 5.019526412e-19 -0.005012571003)
(0.01277809811 4.944484593e-19 -0.004801235353)
(0.01298965008 5.136018623e-19 -0.004599410507)
(0.01317433456 5.002786522e-19 -0.004410010309)
(0.01333358215 4.946876798e-19 -0.004236143689)
(0.01346912556 4.566033078e-19 -0.004081074969)
(0.01358296527 4.306979163e-19 -0.0039482127)
(0.01367729435 4.223849431e-19 -0.003841133711)
(0.01375442046 4.800129106e-19 -0.003763539725)
(0.01381671044 2.679684894e-19 -0.003719301034)
(0.01386692675 1.5097212e-18 -0.003711431594)
(0.01390491578 -3.578732173e-18 -0.00374518044)
(0.01394465953 -5.462229952e-18 -0.00381342406)
(0.01391683415 -5.621689063e-18 -0.004027493917)
(0.01416702285 -3.962500512e-18 -0.00374056535)
(0.01322707688 -1.383353604e-18 -0.006386621536)
(0.005937065351 9.513858888e-20 0.1023127491)
(0.0006679726831 4.102208361e-19 -0.009309126448)
(0.0011442621 7.021136188e-19 -0.00931322984)
(0.0017925178 -1.851730554e-17 -0.009288939443)
(0.002462352807 -3.227134058e-18 -0.009245137977)
(0.00313486121 6.982355288e-19 -0.0091839713)
(0.003803548031 7.067807873e-19 -0.009106162009)
(0.004464805318 4.880032611e-19 -0.009012144782)
(0.005115990048 1.84302992e-18 -0.008902277881)
(0.005754859189 -1.357765625e-17 -0.008776891031)
(0.006379362983 -9.162829667e-18 -0.00863634771)
(0.006987561922 1.008791191e-17 -0.008481074148)
(0.007577593793 2.196347056e-17 -0.008311582319)
(0.008147663918 1.259220029e-17 -0.008128490066)
(0.008696047928 3.290234314e-18 -0.007932539433)
(0.009221102212 1.718684883e-19 -0.007724613438)
(0.009721279576 1.109145533e-19 -0.007505751329)
(0.01019514866 4.318383488e-19 -0.007277162197)
(0.01064141612 5.226496053e-19 -0.007040236761)
(0.01105895082 5.556812315e-19 -0.006796557158)
(0.01144680929 5.307628433e-19 -0.006547904542)
(0.01180426165 5.24608081e-19 -0.006296264335)
(0.01213081734 5.219999217e-19 -0.006043828999)
(0.01242624955 5.2068459e-19 -0.005792998292)
(0.0126906175 4.569987708e-19 -0.005546377096)
(0.01292428548 4.91477237e-19 -0.005306770541)
(0.01312793786 5.144808104e-19 -0.005077172611)
(0.01330258356 4.966938516e-19 -0.004860752621)
(0.01344954156 4.923227327e-19 -0.004660862161)
(0.01357043605 4.561127362e-19 -0.004481019868)
(0.01366718078 4.443675676e-19 -0.004324845734)
(0.01374190824 4.433283796e-19 -0.004196071376)
(0.01379687976 4.904323585e-19 -0.004098492124)
(0.01383437391 3.17954659e-19 -0.004036012874)
(0.01385711081 1.472918096e-18 -0.004012246953)
(0.01386553839 -3.489279857e-18 -0.00402842245)
(0.01387278971 -5.575914546e-18 -0.004099453727)
(0.01380780963 -5.595787346e-18 -0.004202280281)
(0.01400513965 -3.890768853e-18 -0.004372383165)
(0.01294989261 -1.255199529e-18 -0.004887165801)
(0.005760366755 1.371968428e-19 0.1108420266)
(0.000678845243 4.420190858e-19 -0.01026046222)
(0.00116289586 7.160328329e-19 -0.01026327637)
(0.00182172863 -1.851946252e-17 -0.01023593909)
(0.002502521116 -3.229901258e-18 -0.01018748656)
(0.00318607131 7.03601099e-19 -0.01012006587)
(0.003865786521 6.986941995e-19 -0.0100343913)
(0.004538001997 4.773274732e-19 -0.009930885833)
(0.005200025205 1.838208512e-18 -0.009809901212)
(0.005849561024 -1.356370458e-17 -0.009671762494)
(0.006484500772 -9.185418794e-18 -0.009516832251)
(0.007102836773 1.002714972e-17 -0.009345542654)
(0.007702628505 2.197334022e-17 -0.009158420473)
(0.008281992516 1.258553176e-17 -0.008956109228)
(0.008839105294 3.262523017e-18 -0.008739389627)
(0.009372214147 1.412530661e-19 -0.008509198372)
(0.009879653562 8.645022606e-20 -0.008266645307)
(0.01035986556 4.100218386e-19 -0.008013028717)
(0.01081142307 5.085018562e-19 -0.007749848515)
(0.01123305543 5.063107227e-19 -0.007478817097)
(0.01162367534 5.114928052e-19 -0.00720186757)
(0.01198240647 5.28963545e-19 -0.006921159143)
(0.01230861087 5.06891711e-19 -0.006639079462)
(0.01260191536 5.048929137e-19 -0.00635824371)
(0.01286223581 5.073979334e-19 -0.006081490587)
(0.01308979823 5.022978335e-19 -0.005811874648)
(0.01328515543 5.027778608e-19 -0.005552651643)
(0.01344919778 4.862282196e-19 -0.005307256513)
(0.01358314741 4.881138833e-19 -0.005079293783)
(0.01368853956 4.458184967e-19 -0.004872534801)
(0.01376722016 4.197718267e-19 -0.004690842595)
(0.01382129643 4.101588258e-19 -0.004538121338)
(0.01385305102 4.676492e-19 -0.004418286936)
(0.01386481303 2.790851303e-19 -0.004335247916)
(0.01385938472 1.449209186e-18 -0.004293302524)
(0.01383843215 -3.481873057e-18 -0.004290784554)
(0.01381198702 -5.654068772e-18 -0.004359681096)
(0.01371323168 -5.641365713e-18 -0.004351665251)
(0.01387484929 -3.771265069e-18 -0.00496487312)
(0.01270958265 -1.169395528e-18 -0.003263000549)
(0.005598649309 2.145708481e-19 0.1191441294)
(0.0006907476627 4.374722505e-19 -0.01122788528)
(0.001183295515 7.033728242e-19 -0.01122940136)
(0.001853713957 -1.852382737e-17 -0.01119899072)
(0.002546519361 -3.222560126e-18 -0.01114584769)
(0.003242188769 7.02561533e-19 -0.01107211769)
(0.00393402477 6.973302331e-19 -0.01097850279)
(0.004618302352 4.783922332e-19 -0.01086540767)
(0.005292276339 1.839723808e-18 -0.01073316957)
(0.005953595795 -1.355902901e-17 -0.01058210093)
(0.006600088547 -9.204565669e-18 -0.01041255413)
(0.007229673049 1.002300532e-17 -0.01022495763)
(0.007840323433 2.198370027e-17 -0.01001984315)
(0.008430059072 1.259615732e-17 -0.00979787013)
(0.008996947556 3.24727164e-18 -0.009559848468)
(0.00953911607 1.252238287e-19 -0.009306759592)
(0.01005476859 7.858027117e-20 -0.009039775681)
(0.01054220736 4.043449225e-19 -0.008760276839)
(0.01099985765 5.055261089e-19 -0.008469865874)
(0.01142629484 5.042877305e-19 -0.008170380338)
(0.01182027326 5.045816809e-19 -0.007863901542)
(0.01218075578 5.277254507e-19 -0.007552760219)
(0.01250694346 5.064662069e-19 -0.007239538537)
(0.01279830444 5.042737485e-19 -0.006927068243)
(0.01305460097 5.246032457e-19 -0.006618424908)
(0.01327591286 5.135248016e-19 -0.006316917137)
(0.01346265678 5.068421296e-19 -0.006026068938)
(0.01361560307 4.940328804e-19 -0.005749594362)
(0.01373588057 4.984686172e-19 -0.005491371426)
(0.01382495851 4.637323869e-19 -0.005255429868)
(0.01388463158 4.303439576e-19 -0.005045896823)
(0.01391700201 4.234188966e-19 -0.004866891447)
(0.01392442533 4.969698769e-19 -0.004722497651)
(0.01390936556 3.513073013e-19 -0.004616649559)
(0.01387479782 1.49505311e-18 -0.004554363249)
(0.01382292908 -3.499533398e-18 -0.004532072447)
(0.01376347339 -5.655944921e-18 -0.004594399277)
(0.01363666748 -5.6912355e-18 -0.004481962528)
(0.01377114724 -3.723698511e-18 -0.005529882287)
(0.0124961263 -1.061102911e-18 -0.00150748278)
(0.005448134942 2.252745703e-19 0.1272355594)
(0.0007036899718 4.375285285e-19 -0.01221285762)
(0.001205477759 6.998517171e-19 -0.01221306679)
(0.001888500036 -1.852810006e-17 -0.01217956158)
(0.002594385134 -3.223159835e-18 -0.01212169682)
(0.00330326521 7.026477689e-19 -0.01204161204)
(0.004008332187 7.008235499e-19 -0.01193999211)
(0.004705798355 4.838238026e-19 -0.01181721613)
(0.0053928636 1.843460948e-18 -0.01167359752)
(0.006067117953 -1.355085729e-17 -0.01150942711)
(0.006726321541 -9.228084536e-18 -0.01132503678)
(0.007368313426 1.005127247e-17 -0.01112084037)
(0.007990975389 2.197528366e-17 -0.01089736346)
(0.008592221086 1.260150165e-17 -0.0106552704)
(0.009169999162 3.252923494e-18 -0.0103953896)
(0.009722305215 1.133349423e-19 -0.01011873711)
(0.01024719996 7.508602573e-20 -0.009826538186)
(0.01074283204 4.002938725e-19 -0.009520246521)
(0.01120746433 5.121846307e-19 -0.00920156084)
(0.01163950305 4.733474313e-19 -0.008872438319)
(0.0120375286 4.700762122e-19 -0.008535104556)
(0.01240032766 5.211849692e-19 -0.008192059687)
(0.01272692552 5.146719704e-19 -0.007846080305)
(0.01301661805 4.974861437e-19 -0.007500216907)
(0.01326900191 5.644608546e-19 -0.007157786402)
(0.01348400098 5.441896481e-19 -0.00682235792)
(0.01366188974 5.115823224e-19 -0.00649773333)
(0.01380331516 4.948995607e-19 -0.006187920584)
(0.01390931149 4.66955636e-19 -0.005897095634)
(0.01398129226 4.905377584e-19 -0.005629570076)
(0.01402102766 4.762833007e-19 -0.005389746952)
(0.01403064415 4.802046823e-19 -0.005182017176)
(0.01401261082 5.173322499e-19 -0.005010696254)
(0.0139695968 4.245759385e-19 -0.004879794347)
(0.01390469766 1.489377051e-18 -0.004794974757)
(0.01381990484 -3.499107274e-18 -0.004750869146)
(0.01372726303 -5.713123308e-18 -0.004805790099)
(0.01357470119 -5.723757717e-18 -0.004596937097)
(0.01368953347 -3.718982992e-18 -0.006075188338)
(0.01230772821 -8.890652982e-19 0.0003838639816)
(0.005308439303 2.701390008e-19 0.1351303311)
(0.000717680135 4.396662394e-19 -0.01321685391)
(0.001229455817 7.097642128e-19 -0.01321574676)
(0.00192610806 -1.852508411e-17 -0.01317913174)
(0.00264614986 -3.216728252e-18 -0.01311652411)
(0.003369345573 7.078420911e-19 -0.01303005186)
(0.004088771583 7.023457921e-19 -0.01292037656)
(0.004800576126 4.876123715e-19 -0.01278784369)
(0.005501902733 1.855135427e-18 -0.01263273188)
(0.006190279782 -1.354236846e-17 -0.01245530021)
(0.006863395858 -9.238830303e-18 -0.01225584852)
(0.007519005331 9.998077066e-18 -0.01203476375)
(0.00815489065 2.200557325e-17 -0.01179255286)
(0.008768851039 1.262945824e-17 -0.01152987267)
(0.009358705812 3.238236106e-18 -0.0112475581)
(0.009922307007 1.167210716e-19 -0.01094664844)
(0.01045755868 8.402598524e-20 -0.01062841164)
(0.0109624412 4.265056835e-19 -0.01029436579)
(0.01143503951 5.227054532e-19 -0.009946297804)
(0.0118735743 5.253196704e-19 -0.009586278425)
(0.01227643545 5.350656781e-19 -0.009216673357)
(0.01264221679 5.504254554e-19 -0.008840150061)
(0.01296975161 5.34727569e-19 -0.00845967987)
(0.01325814804 5.391182687e-19 -0.008078534986)
(0.01350682278 5.393733855e-19 -0.007700279148)
(0.01371553193 5.290169518e-19 -0.00732875073)
(0.01388439992 5.284737139e-19 -0.006968042223)
(0.01401394536 5.187279826e-19 -0.006622471313)
(0.0141051026 5.26047679e-19 -0.00629653687)
(0.01415922971 4.985428337e-19 -0.005994867254)
(0.01417809891 4.8567631e-19 -0.005722171796)
(0.01416388714 4.799942608e-19 -0.005483155004)
(0.01411918611 5.346089833e-19 -0.005282439453)
(0.01404686904 3.968429847e-19 -0.00512416448)
(0.01395034455 1.569502003e-18 -0.005014616808)
(0.01383190522 -3.574641226e-18 -0.004946423797)
(0.01370369148 -5.758541031e-18 -0.004993372946)
(0.01351809547 -5.783698655e-18 -0.004694143826)
(0.01359415762 -3.614271469e-18 -0.006595609953)
(0.01211756315 -8.82395075e-19 0.002395636819)
(0.005180275594 2.947389311e-19 0.1428429067)
(0.0007327236366 4.399585911e-19 -0.01424135837)
(0.001255238676 7.090463091e-19 -0.01423892424)