/*--------------------------------*- C++ -*----------------------------------*\
| =========                 |                                                 |
| \\      /  F ield         | OpenFOAM: The Open Source CFD Toolbox           |
|  \\    /   O peration     | Version:  v1912                                 |
|   \\  /    A nd           | Website:  www.openfoam.com                      |
|    \\/     M anipulation  |                                                 |
\*---------------------------------------------------------------------------*/
FoamFile
{
    version     2.0;
    format      ascii;
    class       volScalarField;
    location    "0.1";
    object      alpha.gas_0;
}
// * * * * * * * * * * * * * * * * * * * * * * * * * * * * * * * * * * * * * //

dimensions      [0 0 0 0 0 0 0];


internalField   nonuniform List<scalar> 
4800
(
8.364222767e-243
8.44815526e-238
6.128668111e-233
3.158418033e-228
1.229691283e-223
3.779456763e-219
9.456954952e-215
1.969996846e-210
3.473975465e-206
5.252644235e-202
6.877110798e-198
7.85651872e-194
7.877472886e-190
6.962172451e-186
5.439584844e-182
3.762891985e-178
2.304969514e-174
1.248367549e-170
5.956907521e-167
2.488728609e-163
9.010025403e-160
2.779153641e-156
7.230009781e-153
1.485015628e-149
1.604545918e-149
1.592752557e-149
1.228599378e-125
1.247059301e-122
4.904380306e-122
4.173888585e-122
1.477459943e-85
5.311826139e-81
1.438816515e-76
4.481591192e-77
1.430603903e-64
1.422779846e-79
1.264588713e-53
3.258872118e-56
0
0.01219586799
5.225061822e-242
4.9363962e-237
3.357086255e-232
1.622815012e-227
5.92818271e-223
1.709763106e-218
4.014607081e-214
7.846952329e-210
1.298136178e-205
1.840767076e-201
2.259316791e-197
2.418388798e-193
2.270556878e-189
1.877654379e-185
1.371517253e-181
8.86287758e-178
5.070126704e-174
2.570854989e-170
1.153793141e-166
4.565655264e-163
1.583636912e-159
4.779813701e-156
1.26215726e-152
2.860375261e-149
1.975345742e-146
5.388188045e-145
0
4.370572898e-115
1.321157875e-114
8.310184386e-113
1.467051336e-104
7.49784474e-75
1.265402199e-73
4.475514851e-77
9.138500624e-59
2.976635992e-81
9.449206854e-48
0
6.049532603e-05
0.01831896285
2.651895929e-240
2.874001129e-235
2.242270602e-230
1.243942447e-225
5.216650657e-221
1.727674796e-216
4.659505874e-212
1.046395506e-207
1.989606915e-203
3.244100358e-199
4.581174834e-195
5.646351774e-191
6.110352385e-187
5.832397539e-183
4.926679003e-179
3.691239316e-175
2.456422094e-171
1.453080545e-167
7.646063367e-164
3.585285083e-160
1.505754687e-156
5.726614689e-153
2.007799639e-149
5.175057898e-146
7.513154673e-141
2.779756654e-137
0
5.334170588e-108
1.659846226e-107
1.24552112e-105
2.303778939e-104
2.784593557e-72
1.720338091e-91
1.473669946e-59
3.167008542e-56
0
1.035498192e-43
0
9.139973594e-05
0.01844731751
4.668052372e-239
4.800334952e-234
3.54647129e-229
1.859679277e-224
7.35828423e-220
2.295045391e-215
5.81784871e-211
1.225413194e-206
2.180108128e-202
3.316948919e-198
4.356775612e-194
4.975602998e-190
4.966213111e-186
4.347073249e-182
3.342947812e-178
2.258567815e-174
1.33796504e-170
6.918318747e-167
3.097556434e-163
1.184961969e-159
3.787237621e-156
9.713963361e-153
1.830017056e-149
1.829409045e-149
7.228469655e-134
1.942867737e-130
0
1.367058941e-104
1.497596236e-100
7.634506336e-99
0
6.17185768e-73
3.107174978e-93
1.462156697e-54
3.166481135e-56
8.184770148e-46
5.083594759e-42
0
0.00010821277
0.01852892271
1.708691939e-239
1.839304788e-234
1.42230934e-229
7.806078417e-225
3.23267152e-220
1.055284403e-215
2.799932971e-211
6.173055137e-207
1.149651934e-202
1.831263485e-198
2.518671563e-194
3.012595862e-190
3.150233121e-186
2.89032477e-182
2.331871781e-178
1.656312047e-174
1.037965513e-170
5.814320407e-167
2.914486267e-163
1.270574956e-159
4.612567002e-156
1.29920132e-152
2.454213891e-149
1.08424228e-147
1.491859437e-130
2.268466144e-127
2.594888862e-131
1.097140651e-123
9.093091236e-95
3.039579903e-92
8.288760293e-113
1.131725541e-74
6.09658325e-78
2.192794148e-52
3.187662379e-56
7.82134213e-44
2.512469672e-42
0
0.0001289779648
0.01869132578
9.647007269e-237
1.156535978e-231
9.941530098e-227
6.053717707e-222
2.776181911e-217
1.001613258e-212
2.931138642e-208
7.112309967e-204
1.454417535e-199
2.537301533e-195
3.810925905e-191
4.960984509e-187
5.622978128e-183
5.563449567e-179
4.807615749e-175
3.621936357e-171
2.367687665e-167
1.33126475e-163
6.342493263e-160
2.49605756e-156
7.750548683e-153
1.728353435e-149
2.133266953e-146
1.644245805e-134
7.593540599e-131
3.298389827e-128
2.789158879e-125
8.480452389e-130
1.630431486e-92
1.728435215e-86
1.331056336e-99
8.297859773e-78
2.650941141e-98
1.74496773e-52
1.489537186e-49
3.047375973e-44
2.572291759e-44
1.99247433e-29
0.0001660198104
0.01881250661
2.681204176e-238
3.131984252e-233
2.647961376e-228
1.599703617e-223
7.336627519e-219
2.666841719e-214
7.91748225e-210
1.961810272e-205
4.12255647e-201
7.436591354e-197
1.162199734e-192
1.584559639e-188
1.894371684e-184
1.992666186e-180
1.84758417e-176
1.510196826e-172
1.086314109e-168
6.848623229e-165
3.756661896e-161
1.771521395e-157
7.053659979e-154
2.317029245e-150
6.326356592e-147
2.662939762e-146
1.311480276e-128
1.487299517e-124
5.435872699e-123
1.654561438e-127
6.727183961e-111
7.691396771e-84
1.37340119e-79
1.589256404e-76
0
4.034595676e-53
1.350891994e-49
1.640381978e-45
3.740960681e-48
2.869455998e-10
0.0001981954596
0.01888221921
3.387144518e-238
3.337505445e-233
2.365235938e-228
1.19071514e-223
4.525726158e-219
1.356372717e-214
3.304004579e-210
6.685579299e-206
1.141993664e-201
1.666681195e-197
2.097165701e-193
2.290291736e-189
2.18088267e-185
1.815777373e-181
1.323133454e-177
8.430522998e-174
4.682798224e-170
2.255623502e-166
9.351133368e-163
3.30515751e-159
9.918613396e-156
2.626199952e-152
7.826930821e-149
1.842417219e-146
7.49556426e-126
1.512427156e-121
7.095909603e-120
3.535430694e-119
0
2.944302388e-110
4.326715302e-77
4.442149275e-74
0
1.381278428e-54
8.94255387e-51
7.677099719e-48
3.820913963e-48
1.81188235e-09
0.0002185216549
0.01892597534
7.904045983e-237
6.911133234e-232
4.347803393e-227
1.943263619e-222
6.557005387e-218
1.74404118e-213
3.768277759e-209
6.758034078e-205
1.022021526e-200
1.318772552e-196
1.464645218e-192
1.408867151e-188
1.178685419e-184
8.595948508e-181
5.466322741e-177
3.025664328e-173
1.451416757e-169
5.988367263e-166
2.09925932e-162
6.133588228e-159
1.448004617e-155
2.617882915e-152
3.259894595e-149
2.096175508e-146
6.475459745e-125
1.345967603e-121
1.193795458e-120
1.263430476e-115
0
5.229789718e-81
1.907191099e-77
1.882983601e-77
1.776435508e-62
3.999512549e-57
2.187778722e-53
4.981027787e-49
3.832650121e-45
3.353790395e-09
0.0002320710566
0.01895473824
6.123477476e-237
5.32087765e-232
3.326015143e-227
1.476811508e-222
4.949400559e-218
1.307313269e-213
2.804690234e-209
4.994157863e-205
7.499647371e-201
9.611974942e-197
1.060905656e-192
1.015110943e-188
8.459571445e-185
6.157992592e-181
3.920203998e-177
2.181565576e-173
1.059599659e-169
4.498545679e-166
1.725113513e-162
6.130016073e-159
1.744741158e-155
3.075421014e-152
3.770814074e-149
0
1.795714559e-125
2.447143183e-122
0
4.639283526e-113
4.093408637e-85
1.482680797e-81
1.317535636e-96
4.999842785e-68
4.941294239e-63
6.114398401e-61
0
5.751627026e-50
6.574873247e-46
4.682405161e-09
0.0002416132444
0.01897421937
2.246071394e-233
2.006575294e-228
1.288219629e-223
5.867254421e-219
2.013951877e-214
5.438477944e-210
1.190266954e-205
2.156531742e-201
3.284792466e-197
4.254036516e-193
4.722445537e-189
4.518734082e-185
3.739162368e-181
2.678691793e-177
1.659620416e-173
8.86674846e-170
4.076123002e-166
1.643323717e-162
6.837787223e-159
2.980353604e-155
6.650047312e-152
3.606521243e-149
2.141532256e-146
5.262174652e-131
4.30713096e-127
0
0
0
8.048644852e-86
4.680564635e-83
3.160179759e-88
2.201211501e-68
1.030149343e-64
1.465966879e-65
6.506450753e-72
1.452257384e-51
1.124991448e-47
5.801295205e-09
0.000248554988
0.01898769137
6.261275037e-230
6.267900736e-225
4.557020485e-220
2.37821086e-215
9.471733638e-211
3.005890767e-206
7.827737697e-202
1.706677856e-197
3.15821687e-193
5.004428428e-189
6.825080178e-185
8.026821153e-181
8.132386261e-177
7.068559038e-173
5.229456256e-169
3.25070909e-165
1.663425781e-161
6.779843168e-158
2.080591053e-154
4.313843097e-151
4.60982198e-148
2.242251336e-146
1.211031577e-136
2.766078278e-132
3.943028314e-130
3.291231958e-130
8.443906907e-114
2.889961599e-91
1.324419483e-87
4.091329086e-97
1.038819668e-76
5.088193235e-70
8.468223202e-68
6.915099126e-68
3.248543543e-72
3.516939915e-54
1.267468017e-50
6.730677102e-09
0.0002537385938
0.01899712164
1.98286302e-230
1.94224534e-225
1.365820738e-220
6.805534722e-216
2.551835425e-211
7.514061249e-207
1.789328895e-202
3.518066586e-198
5.796433954e-194
8.088005361e-190
9.626418035e-186
9.815293682e-182
8.587436601e-178
6.43943625e-174
4.12084682e-170
2.231992444e-166
1.009338395e-162
3.729140189e-159
1.087292838e-155
2.360854509e-152
3.420321809e-149
2.241580996e-146
1.015362226e-137
1.073855953e-134
0
1.950062248e-124
3.285419304e-97
2.073358662e-92
1.09588472e-90
1.86410134e-97
4.614966241e-77
3.13050052e-73
5.469154558e-85
1.42670809e-65
4.123640099e-62
4.659893719e-58
7.017369895e-55
7.498858569e-09
0.0002576974833
0.01900374038
9.174741651e-232
1.09528523e-226
9.522702122e-222
5.947310615e-217
2.832164373e-212
1.072780626e-207
3.328275052e-203
8.636536564e-199
1.903478009e-194
3.604083842e-190
5.911604508e-186
8.448902993e-182
1.055887443e-177
1.155528748e-173
1.106759885e-169
9.255668949e-166
6.731747143e-162
4.23647078e-158
2.294687041e-154
1.067756341e-150
4.492013186e-147
2.721367839e-143
1.408415129e-139
0
3.32837696e-140
1.166567e-118
7.166902334e-98
8.211689362e-95
7.231208857e-95
2.384471528e-84
3.500471822e-79
4.157692038e-78
4.727226632e-85
1.876760304e-65
1.109438116e-62
0
3.231727634e-56
8.134615209e-09
0.0002607798397
0.0190083463
1.08861855e-233
1.46743514e-228
1.433206444e-223
1.000930727e-218
5.312182591e-214
2.238626696e-209
7.728054324e-205
2.236031084e-200
5.516407471e-196
1.175373354e-191
2.183007104e-187
3.556081092e-183
5.09898517e-179
6.447876852e-175
7.204802158e-171
7.152206408e-167
6.397564826e-163
5.28673709e-159
4.120795237e-155
2.999200561e-151
1.885260678e-147
6.885631484e-144
0
0
0
2.281173447e-103
9.21508516e-100
0
4.098374209e-91
8.094260297e-86
3.177011927e-83
1.858049354e-94
2.634471624e-72
2.013880897e-66
2.905480993e-64
0
0
8.66311288e-09
0.0002632204059
0.01901147411
2.501513766e-236
3.384839745e-231
3.337133544e-226
2.375198432e-221
1.302572082e-216
5.773384932e-212
2.138884659e-207
6.776475137e-203
1.862254729e-198
4.471402136e-194
9.400628584e-190
1.728441851e-185
2.770461243e-181
3.856286376e-177
4.651160467e-173
4.885614471e-169
4.573242548e-165
4.024018964e-161
3.559303617e-157
3.14138659e-153
2.482054307e-149
1.458683764e-145
7.758561839e-142
7.897414503e-138
5.08931253e-110
9.760747308e-105
4.132028344e-103
6.002717145e-111
1.303457147e-91
2.078583926e-88
2.588438726e-88
7.317278264e-94
3.824123296e-73
1.154361861e-68
3.77725736e-67
0
0
9.104707912e-09
0.0002651787103
0.0190134929
1.121788033e-236
1.059864335e-231
7.213601482e-227
3.490939434e-222
1.276191896e-217
3.680651837e-213
8.637366545e-209
1.688289779e-204
2.802330866e-200
4.020799394e-196
5.077678095e-192
5.756022999e-188
5.994259378e-184
5.922597871e-180
5.846592576e-176
6.193842591e-172
7.427871031e-168
9.808656828e-164
1.227828847e-159
1.203404054e-155
1.148182402e-151
1.181123149e-147
2.130801776e-146
5.594413443e-132
5.019488641e-111
1.352630435e-107
4.029346025e-114
5.745925434e-99
1.405379197e-93
3.684281812e-92
5.23047389e-100
1.684519733e-80
3.998069779e-75
2.000908218e-72
1.470481006e-71
0
0
9.47584687e-09
0.0002667685168
0.01901466376
8.014639331e-233
7.388029803e-228
4.889432276e-223
2.291808643e-218
8.07747659e-214
2.233387962e-209
4.989428477e-205
9.203142982e-201
1.426589257e-196
1.891719741e-192
2.196845502e-188
2.316247546e-184
2.330287611e-180
2.335370474e-176
2.33142528e-172
2.209491187e-168
1.865817469e-164
1.32770099e-160
7.563263401e-157
3.218911421e-153
8.670450807e-150
0
0
7.615900497e-119
1.386300716e-113
4.454810978e-112
5.565629215e-114
1.292489834e-100
2.658915278e-97
5.824857126e-97
4.496726934e-100
3.00682082e-81
2.356457587e-78
2.771537324e-77
2.021445082e-76
0
0
9.789701595e-09
0.0002680727487
0.01901517471
1.028005999e-229
1.005037631e-224
7.030886088e-220
3.471431874e-215
1.283981518e-210
3.710203892e-206
8.619825425e-202
1.642693514e-197
2.604247185e-193
3.468104091e-189
3.903978082e-185
3.727046257e-181
3.019213239e-177
2.070509102e-173
1.195324948e-169
5.753701998e-166
2.274825672e-162
7.220148341e-159
1.774846454e-155
3.183160161e-152
3.673008774e-149
0
0
2.491121813e-120
8.176739994e-118
6.369162527e-118
3.481075442e-109
5.502669095e-104
2.278230644e-102
1.704786997e-102
7.466287852e-87
2.832357011e-83
5.880514402e-83
3.659142585e-82
2.721082559e-81
0
0
1.005684188e-08
0.0002691526257
0.01901516712
1.138899967e-229
1.125530534e-224
7.952711972e-220
3.96247394e-215
1.477646162e-210
4.300745978e-206
1.005399403e-201
1.925883461e-197
3.065543017e-193
4.094182529e-189
4.616477963e-185
4.409158461e-181
3.568715931e-177
2.441970409e-173
1.404692584e-169
6.7267737e-166
2.641135927e-162
8.305403425e-159
2.016382084e-155
3.555319673e-152
4.058831645e-149
2.269460455e-146
2.704258183e-127
1.873567939e-123
2.154373871e-130
1.642477109e-115
1.350553034e-110
6.064555196e-109
1.492542968e-113
6.674775584e-93
3.193790625e-88
7.252236491e-87
1.089175666e-87
4.67596339e-87
3.550109515e-86
0
0
1.028568034e-08
0.0002700540733
0.01901474498
4.609651383e-227
5.072535308e-222
3.981019358e-217
2.197283088e-212
9.050232013e-208
2.90016101e-203
7.438754669e-199
1.557472609e-194
2.698295131e-190
3.903667473e-186
4.74210983e-182
4.848434788e-178
4.168880014e-174
3.00192554e-170
1.795251123e-166
8.793954761e-163
3.451828066e-159
1.048250329e-155
2.320570234e-152
3.341873198e-149
2.356826958e-146
1.085745103e-133
4.679733104e-129
2.282787476e-128
2.687476916e-130
1.058191995e-116
2.105830453e-113
6.337624459e-114
3.713324611e-114
3.259798857e-94
3.998088989e-91
9.364927955e-92
1.829632575e-92
5.851918546e-92
4.459204643e-91
0
0
1.04829521e-08
0.0002708121629
0.01901398104
4.624532258e-228
5.570068898e-223
4.790272446e-218
2.900761874e-213
1.312560112e-208
4.627429501e-204
1.307858816e-199
3.022583288e-195
5.791364972e-191
9.286087163e-187
1.253297963e-182
1.427606953e-178
1.371945027e-174
1.108273657e-170
7.468298552e-167
4.144179241e-163
1.854713163e-159
6.473459446e-156
1.663318811e-152
2.812790237e-149
2.359095227e-146
1.300259933e-135
1.131984792e-132
1.677480864e-141
5.640322398e-126
1.036508576e-119
6.104027011e-118
4.487458284e-118
1.108371295e-102
2.67974757e-97
8.772553562e-96
1.138566129e-96
2.756658481e-97
7.232969951e-97
5.299973219e-96
0
0
1.065411591e-08
0.0002714540729
0.01901294192
2.805032552e-230
3.539603294e-225
3.22586435e-220
2.094324899e-215
1.028473153e-210
3.988454636e-206
1.259842876e-201
3.319423004e-197
7.440715277e-193
1.443819916e-188
2.463332386e-184
3.745410953e-180
5.127755651e-176
6.355365206e-172
7.116097651e-168
7.109600108e-164
6.177471694e-160
4.482887666e-156
2.561701452e-152
1.033101448e-148
2.157523866e-145
9.964954103e-140
6.333319574e-138
1.895718686e-141
9.192339734e-128
6.444063091e-125
1.083733399e-129
1.66373543e-109
2.221191831e-104
2.088920374e-102
6.129043514e-101
1.324059022e-101
3.762353695e-102
8.899500133e-102
5.978837843e-101
0
0
1.080360182e-08
0.0002720011869
0.01901167471
1.078045275e-232
1.24040581e-227
1.03802008e-222
6.234832259e-218
2.856233807e-213
1.044170002e-208
3.160140373e-204
8.208628143e-200
1.904548587e-195
4.107725862e-191
8.449163107e-187
1.655363966e-182
3.019491262e-178
4.984222508e-174
7.273384636e-170
9.234474361e-166
1.005701183e-161
9.167922984e-158
6.75455889e-154
3.873759339e-150
1.524114887e-146
5.173617364e-145
4.750530728e-145
9.278708731e-135
1.556743617e-130
1.106256784e-129
0
1.280703987e-110
1.712426332e-107
1.303898353e-107
3.610461992e-106
1.494972354e-106
4.716234449e-107
1.088803236e-106
6.513209427e-106
0
0
1.093504504e-08
0.0002724705551
0.01901021697
2.078545779e-232
2.148548378e-227
1.583335229e-222
8.209400635e-218
3.18191862e-213
9.63203124e-209
2.350576125e-204
4.741239653e-200
8.07904452e-196
1.1880011e-191
1.540680798e-187
1.799220044e-183
1.921160223e-179
1.883182097e-175
1.678362242e-171
1.332776114e-167
9.1938259e-164
5.363783553e-160
2.57447098e-156
1.003784802e-152
3.45743811e-149
2.242464728e-146
1.480254021e-141
1.548030583e-136
1.651941644e-134
0
7.250118215e-119
1.694217124e-113
3.888265319e-112
1.041256033e-112
1.982327577e-111
1.665646095e-111
5.500377976e-112
1.314826232e-111
7.029335023e-111
0
0
1.105146938e-08
0.0002728759492
0.01900859874
9.110134697e-234
9.881493844e-229
7.641294803e-224
4.156689791e-219
1.68936027e-214
5.355242193e-210
1.364997652e-205
2.862298523e-201
5.031903299e-197
7.549710896e-193
9.858778351e-189
1.147456347e-184
1.224092761e-180
1.228867058e-176
1.176092827e-172
1.063272875e-168
8.833346474e-165
6.504585272e-161
4.076940801e-157
2.079084588e-153
8.154617916e-150
2.069031111e-146
1.853795101e-142
1.342108933e-139
1.282340429e-139
9.747431068e-140
1.039158728e-120
1.800615359e-118
3.565162258e-117
9.594368339e-118
1.152703004e-116
1.840189235e-116
6.034620258e-117
1.548616926e-116
7.661404327e-116
0
0
1.11554163e-08
0.0002732286403
0.01900684439
7.751716882e-236
8.576479533e-231
6.758587365e-226
3.742548711e-221
1.546217965e-216
4.972777768e-212
1.282013641e-207
2.705367663e-203
4.745381611e-199
7.00016915e-195
8.766999541e-191
9.403557738e-187
8.727905641e-183
7.125787814e-179
5.279818235e-175
3.761685768e-171
2.798937654e-167
2.294154049e-163
1.96224562e-159
1.551563049e-155
1.066721775e-151
6.214987703e-148
6.482558373e-145
1.737881647e-143
1.590045529e-143
1.293612344e-129
8.906974448e-125
9.749979333e-124
2.465860957e-122
8.9523371e-123
7.55452654e-122
2.003618516e-121
6.284151827e-122
1.757590754e-121
8.458958083e-121
0
0
1.124905033e-08
0.0002735380106
0.01900497395
3.136141556e-238
3.598420088e-233
2.952358221e-228
1.709683528e-223
7.423030154e-219
2.522150381e-214
6.907951885e-210
1.557537605e-205
2.935154349e-201
4.674237638e-197
6.340106532e-193
7.364112738e-189
7.348805995e-185
6.310771982e-181
4.665479889e-177
2.969963196e-173
1.631701105e-169
7.811508148e-166
3.338619547e-162
1.310597837e-158
4.617417428e-155
1.275877093e-151
1.109856281e-148
2.058709434e-146
4.716340021e-136
1.835007025e-131
5.065331297e-130
4.885625461e-129
1.792245253e-127
7.8589303e-128
5.459929929e-127
2.117573533e-126
6.254043893e-127
1.902948151e-126
9.347074827e-126
0
0
1.133424416e-08
0.0002738120273
0.01900300405
2.567147879e-240
3.585288326e-235
3.591096875e-230
2.540978023e-225
1.347125006e-220
5.579906132e-216
1.859170216e-211
5.088599603e-207
1.161992998e-202
2.239626643e-198
3.674902353e-194
5.164795428e-190
6.241001579e-186
6.494715824e-182
5.817189621e-178
4.470987187e-174
2.931577925e-170
1.624638243e-166
7.503150161e-163
2.826994169e-159
8.405686539e-156
1.864397055e-152
2.761066915e-149
2.055785082e-146
1.287957698e-137
1.463508841e-134
2.980617477e-135
2.914487898e-134
1.193203434e-132
6.451219837e-133
4.04331354e-132
2.135666006e-131
5.97882974e-132
1.951757707e-131
1.014794875e-130
0
0
1.141265649e-08
0.0002740575945
0.0190009487
9.084605038e-243
1.364141623e-237
1.468340491e-232
1.116992439e-227
6.37594005e-223
2.851255147e-218
1.030151608e-213
3.077683863e-209
7.746404887e-205
1.669123699e-200
3.124492605e-196
5.152593046e-192
7.579372762e-188
1.003320753e-183
1.19828229e-179
1.284445904e-175
1.220826108e-171
1.012956695e-167
7.224014242e-164
4.359554084e-160
2.178323587e-156
8.740172276e-153
2.706764215e-149
5.423065932e-146
4.164014075e-141
1.476728147e-139
2.83540512e-140
1.754092312e-139
7.736819416e-138
4.895299533e-138
2.95620408e-137
2.026481839e-136
5.513658175e-137
1.888276223e-136
1.064585395e-135
0
0
1.148579515e-08
0.0002742808617
0.01899881998
1.759752512e-245
2.731720166e-240
3.036829247e-235
2.382508722e-230
1.399396539e-225
6.418150677e-221
2.367477144e-216
7.178987411e-212
1.820594759e-207
3.918915723e-203
7.26719286e-199
1.182400766e-194
1.732539015e-190
2.369184998e-186
3.133222357e-182
4.051792363e-178
4.978477885e-174
5.534609979e-170
5.345348549e-166
4.368280363e-162
2.954308146e-158
1.610715311e-154
6.896375498e-151
2.242760372e-147
1.324422141e-145
1.306886704e-144
2.772527418e-145
1.166479517e-144
4.755578056e-143
3.455048649e-143
2.064488116e-142
1.791515399e-141
4.928354738e-142
1.720087575e-141
1.066572335e-140
0
0
1.15550679e-08
0.0002744875042
0.01899662836
2.294791927e-248
3.628239291e-243
4.107277187e-238
3.278986545e-233
1.956825545e-228
9.094699101e-224
3.386505435e-219
1.031220575e-214
2.608560645e-210
5.552476932e-206
1.006480633e-201
1.575523537e-197
2.174678096e-193
2.736756919e-189
3.28334784e-185
3.881403696e-181
4.465538022e-177
4.726750299e-173
4.327219224e-169
3.279252043e-165
1.990994419e-161
9.310181452e-158
3.160988787e-154
7.000955806e-151
4.329888029e-149
3.002598314e-148
5.254163831e-149
1.355720588e-148
3.409304126e-147
2.354763025e-147
8.482517706e-147
2.485511349e-146
1.249836777e-146
2.272517892e-146
1.101050561e-145
0
0
1.162183046e-08
0.0002746829158
0.01899438313
2.257374553e-251
3.606244254e-246
4.126380473e-241
3.330485608e-236
2.008755318e-231
9.42391885e-227
3.533743247e-222
1.079712543e-217
2.727017607e-213
5.758075773e-209
1.026236478e-204
1.558805967e-200
2.044200936e-196
2.365534241e-192
2.505925553e-188
2.545918034e-184
2.54423892e-180
2.42826996e-176
2.063593852e-172
1.457463513e-168
8.117737101e-165
3.381929556e-161
9.653211139e-158
1.539166412e-154
1.154064272e-152
8.287318905e-152
1.631455e-152
2.725311441e-152
3.767256969e-151
2.545940428e-151
8.656685289e-151
3.486810782e-150
1.441508004e-150
2.17302719e-150
6.898379319e-150
0
0
1.16874302e-08
0.0002748723665
0.01899209287
1.795392808e-254
2.88298862e-249
3.317386104e-244
2.694777483e-239
1.636943276e-234
7.735366415e-230
2.919232836e-225
8.959167951e-221
2.26556988e-216
4.767934874e-212
8.41765797e-208
1.255429234e-203
1.593769527e-199
1.742171993e-195
1.675250751e-191
1.470422654e-187
1.23195365e-183
1.002619597e-179
7.60522089e-176
4.961388329e-172
2.569753909e-168
9.821132422e-165
2.500098758e-161
3.327814325e-158
2.934265659e-156
2.345459076e-155
6.257984994e-156
9.074546116e-156
5.19438862e-155
3.755753748e-155
1.087910734e-154
5.877436477e-154
2.22898666e-154
3.142501712e-154
9.929744852e-154
0
0
1.175326416e-08
0.0002750612495
0.01898976586
1.20909906e-257
1.944741131e-252
2.241641377e-247
1.825600303e-242
1.11323708e-237
5.287284297e-233
2.006681812e-228
6.191004019e-224
1.571311155e-219
3.309576687e-215
5.823568745e-211
8.606506211e-207
1.07333294e-202
1.135860203e-198
1.029896797e-194
8.159268497e-191
5.846920657e-187
3.94550442e-183
2.531794313e-179
1.467997375e-175
7.011484478e-172
2.492830069e-168
5.83955304e-165
6.997324297e-162
7.278113055e-160
6.519247555e-159
2.476430229e-159
3.743118784e-159
8.116487073e-159
7.01474456e-159
1.611743167e-158
1.081143949e-157
4.252262169e-158
5.493149423e-158
1.961454487e-157
0
0
1.182083216e-08
0.0002752552828
0.01898741063
7.12189179e-261
1.145088794e-255
1.318600205e-250
1.073099745e-245
6.547041457e-241
3.116716245e-236
1.187697966e-231
3.683104438e-227
9.395834736e-223
1.986644848e-218
3.500399181e-214
5.160340554e-210
6.384627198e-206
6.647049466e-202
5.84327439e-198
4.369070687e-194
2.824857692e-190
1.627280705e-186
8.633223453e-183
4.221463633e-179
1.787591139e-175
5.856846661e-172
1.280043229e-168
1.430732175e-165
1.833570019e-163
1.800827312e-162
9.672782285e-163
1.64757723e-162
1.432391548e-162
1.637727917e-162
2.820447983e-162
2.090056117e-161
9.631065524e-162
1.085585122e-161
4.392983955e-161
0
0
1.189182374e-08
0.0002754608875
0.01898503639
3.756558495e-264
6.032939917e-259
6.930401377e-254
5.622909854e-249
3.421859604e-244
1.627568592e-239
6.211427042e-235
1.933406516e-230
4.958136847e-226
1.0541962e-221
1.866019547e-217
2.757392195e-213
3.407569916e-209
3.525265897e-205
3.054769521e-201
2.219716143e-197
1.358426656e-193
7.086689341e-190
3.223954641e-186
1.308170487e-182
4.676573737e-179
1.358261362e-175
2.744305304e-172
2.914784307e-169
4.821462538e-167
5.017808795e-166
3.70298087e-166
7.341085085e-166
2.883473572e-166
4.547650231e-166
5.98192001e-166
4.296832076e-165
2.560528161e-165
2.415883657e-165
1.063803968e-164
0
0
1.196820329e-08
0.0002756855045
0.0189826536
1.806164293e-267
2.896745251e-262
3.318868321e-257
2.681769001e-252
1.624355112e-247
7.695881561e-243
2.931879037e-238
9.136238134e-234
2.352053794e-229
5.029852985e-225
8.960426949e-221
1.331601982e-216
1.651610933e-212
1.70929888e-208
1.474565267e-204
1.058592585e-200
6.314602656e-197
3.131755068e-193
1.299320344e-189
4.566955428e-186
1.369350997e-182
3.384168541e-179
6.111308154e-176
6.162829201e-173
1.337994196e-170
1.425656379e-169
1.394538591e-169
3.272111155e-169
6.652941308e-170
1.408746959e-169
1.529914689e-169
9.543446633e-169
7.826832841e-169
6.044130769e-169
2.743062398e-168
0
0
1.205233635e-08
0.0002759380998
0.01898027458
8.029534106e-271
1.285537484e-265
1.469487897e-260
1.182805767e-255
7.125144526e-251
3.355414465e-246
1.27199923e-241
3.954668303e-237
1.01924227e-232
2.189118993e-228
3.925548027e-224
5.877449898e-220
7.340717637e-216
7.636115338e-212
6.601047675e-208
4.727084444e-204
2.792636352e-200
1.354573626e-196
5.372240914e-193
1.73890999e-189
4.587555515e-186
9.699042352e-183
1.523918511e-179
1.431800737e-176
3.943267744e-174
4.162199729e-173
5.198870926e-173
1.459548339e-172
1.792909484e-173
4.650840365e-173
4.55646526e-173
2.319394186e-172
2.673681525e-172
1.688755901e-172
7.503522407e-172
0
0
1.214716691e-08
0.0002762298801
0.01897791457
3.342174822e-274
5.334075315e-269
6.083733196e-264
4.881907001e-259
2.926422911e-254
1.368978805e-249
5.152709729e-245
1.592872817e-240
4.09482255e-236
8.806907516e-232
1.587210927e-227
2.39449698e-223
3.01673197e-219
3.164399712e-215
2.753786002e-211
1.979529653e-207
1.168888634e-203
5.629302371e-200
2.191447546e-196
6.823762068e-193
1.677888256e-189
3.188395605e-186
4.429222701e-183
3.83162739e-180
1.234005219e-177
1.255722968e-176
1.931249545e-176
6.534639069e-176
5.810803134e-177
1.593934732e-176
1.511184663e-176
6.225030131e-176
9.910608147e-176
5.202369781e-176
2.177653129e-175
0
0
1.225646201e-08
0.0002765753225
0.01897559313
1.318134539e-277
2.091143594e-272
2.377250974e-267
1.902753051e-262
1.136424205e-257
5.285552768e-253
1.974249758e-248
6.05419901e-244
1.546660237e-239
3.3177615e-235
5.990218004e-231
9.090049707e-227
1.155223787e-222
1.223949066e-218
1.07561082e-214
7.796082167e-211
4.629140788e-207
2.232762151e-203
8.651742402e-200
2.654319946e-196
6.322059157e-193
1.135433732e-189
1.457073319e-186
1.175565124e-183
4.061434064e-181
3.932223985e-180
7.195331187e-180
2.945153884e-179
2.293821601e-180
5.596198026e-180
5.382605893e-180
1.846113835e-179
3.888065428e-179
1.735519438e-179
6.70361705e-179
0
0
1.2385209e-08
0.0002769939792
0.01897333646
4.984618884e-281
7.826439433e-276
8.845229827e-271
7.05679013e-266
4.203127008e-261
1.946847201e-256
7.224708262e-252
2.19675689e-247
5.563058339e-243
1.185452285e-238
2.134948422e-234
3.247469792e-230
4.155254233e-226
4.446222508e-222
3.95199962e-218
2.896907531e-214
1.737159616e-210
8.440066129e-207
3.281844854e-203
1.004669789e-199
2.366638528e-196
4.147171246e-193
5.108777867e-190
3.939795672e-187
1.383975019e-184
1.28303102e-183
2.706356587e-183
1.339243327e-182
1.074414608e-183
2.00233393e-183
2.014749332e-183
5.989162249e-183
1.585683047e-182
6.152054096e-183
2.183483705e-182
0
0
1.25402021e-08
0.0002775133898
0.01897118093
1.828528674e-284
2.826211701e-279
3.162350293e-274
2.508936989e-269
1.489761253e-264
6.881119884e-260
2.542217036e-255
7.675316608e-251
1.925884606e-246
4.065743558e-242
7.272074252e-238
1.103613019e-233
1.416416487e-229
1.527473674e-225
1.372878086e-221
1.019254793e-217
6.190517529e-214
3.042253935e-210
1.193608212e-206
3.673642386e-203
8.655558921e-200
1.505723032e-196
1.823301697e-193
1.372707409e-190
4.804363409e-188
4.376232064e-187
1.034368847e-186
6.153784425e-186
5.667612104e-187
7.299714946e-187
7.845990508e-187
2.090589665e-186
6.646460986e-186
2.280295669e-186
7.48721682e-186
0
0
1.273097795e-08
0.0002781744525
0.01896917904
6.576543004e-288
9.951530559e-283
1.096765729e-277
8.619482951e-273
5.09193293e-268
2.345393415e-263
8.641389461e-259
2.596827201e-254
6.466951218e-250
1.351954323e-245
2.394517537e-241
3.608549007e-237
4.622097625e-233
5.003299821e-229
4.536857453e-225
3.41020307e-221
2.100654373e-217
1.04711704e-213
4.161856776e-210
1.294548992e-206
3.07204062e-203
5.357417402e-200
6.463826743e-197
4.819873255e-194
1.676934916e-191
1.562822752e-190
4.042323086e-190
2.859900592e-189
3.207456511e-190
2.719780813e-190
3.169721533e-190
7.719405207e-190
2.844928328e-189
8.736689204e-190
2.6847611e-189
0
0
1.297134829e-08
0.0002790409802
0.01896740936
2.338371784e-291
3.449899861e-286
3.725543361e-281
2.886063991e-276
1.690030928e-271
7.749232219e-267
2.84842103e-262
8.538164749e-258
2.116225325e-253
4.38936034e-249
7.695051759e-245
1.14790986e-240
1.459984078e-236
1.577810998e-232
1.437194026e-228
1.09103006e-224
6.812780914e-221
3.448922813e-217
1.392405378e-213
4.394042954e-210
1.055461224e-206
1.857061897e-203
2.251101987e-200
1.678645426e-197
5.831950648e-195
5.83618929e-194
1.624035857e-193
1.344839774e-192
1.887168608e-193
1.041213198e-193
1.329529413e-193
2.974943758e-193
1.239997488e-192
3.436299005e-193
9.997772515e-193
0
0
1.328197283e-08
0.0002802219441
0.01896599789
8.253959753e-295
1.186090466e-289
1.250334899e-284
9.500744769e-280
5.489168748e-275
2.497064311e-270
9.143796083e-266
2.735957472e-261
6.766270106e-257
1.396848613e-252
2.429095031e-248
3.585472076e-244
4.51288336e-240
4.842870867e-236
4.405827639e-232
3.362359593e-228
2.12266659e-224
1.090649876e-220
4.477777095e-217
1.437323927e-213
3.507713475e-210
6.256537157e-207
7.66478787e-204
5.75595397e-201
2.00932091e-198
2.269303499e-197
6.733565936e-197
6.399368228e-196
1.13540006e-196
4.123222099e-197
5.802963185e-197