/*--------------------------------*- C++ -*----------------------------------*\
| =========                 |                                                 |
| \\      /  F ield         | OpenFOAM: The Open Source CFD Toolbox           |
|  \\    /   O peration     | Version:  v1912                                 |
|   \\  /    A nd           | Website:  www.openfoam.com                      |
|    \\/     M anipulation  |                                                 |
\*---------------------------------------------------------------------------*/
FoamFile
{
    version     2.0;
    format      ascii;
    class       volScalarField;
    location    "0.1";
    object      alphat.gas;
}
// * * * * * * * * * * * * * * * * * * * * * * * * * * * * * * * * * * * * * //

dimensions      [1 -1 -1 0 0 0 0];


internalField   nonuniform List<scalar> 
4800
(
1.695860188e-08
3.01089757e-08
3.917866326e-08
4.655462109e-08
5.29345454e-08
5.863818044e-08
6.384382273e-08
6.866296136e-08
7.317082085e-08
7.742099907e-08
8.145328494e-08
8.52981792e-08
8.897967353e-08
9.251704399e-08
9.592605513e-08
9.921979561e-08
1.024092756e-07
1.055038776e-07
1.085116646e-07
1.114396241e-07
1.142938674e-07
1.170797838e-07
1.198021625e-07
1.224652975e-07
1.250730821e-07
1.276290866e-07
1.301366498e-07
1.325989842e-07
1.350193118e-07
1.374010847e-07
1.397483577e-07
1.420664869e-07
1.443635723e-07
1.466536859e-07
1.489648809e-07
1.513619122e-07
1.540227624e-07
1.578022731e-07
1.473001926e-07
6.049677307e-07
2.752475856e-08
4.907149187e-08
6.393799564e-08
7.602829831e-08
8.64852232e-08
9.583281567e-08
1.043633844e-07
1.122597445e-07
1.19645261e-07
1.26607839e-07
1.332127398e-07
1.395099926e-07
1.455389513e-07
1.513312362e-07
1.569127084e-07
1.623048403e-07
1.675256928e-07
1.725906103e-07
1.775127761e-07
1.823036238e-07
1.869731424e-07
1.915301201e-07
1.959823382e-07
2.003367327e-07
2.045995131e-07
2.087762806e-07
2.128721133e-07
2.168916501e-07
2.208391702e-07
2.24718675e-07
2.285340042e-07
2.32289018e-07
2.359879657e-07
2.396363469e-07
2.432433054e-07
2.468293006e-07
2.504550611e-07
2.545122908e-07
3.23505081e-07
1.504158462e-06
2.675078717e-08
4.767319775e-08
6.210921232e-08
7.384991103e-08
8.400487673e-08
9.3082882e-08
1.013677057e-07
1.090368229e-07
1.162099911e-07
1.229725426e-07
1.293878253e-07
1.355043989e-07
1.41360459e-07
1.469866912e-07
1.524081888e-07
1.576457824e-07
1.627169889e-07
1.676367167e-07
1.724177708e-07
1.770712389e-07
1.816068003e-07
1.860329629e-07
1.903572524e-07
1.945863578e-07
1.987262588e-07
2.027823175e-07
2.067593621e-07
2.106617491e-07
2.144934184e-07
2.182579391e-07
2.219585456e-07
2.25598189e-07
2.291796182e-07
2.327056146e-07
2.361797069e-07
2.396086226e-07
2.430113872e-07
2.464380423e-07
3.361410024e-07
1.497041411e-06
2.67904516e-08
4.77447055e-08
6.220261569e-08
7.396106134e-08
8.413133188e-08
9.322298425e-08
1.015202357e-07
1.092008358e-07
1.163847282e-07
1.231573776e-07
1.295822313e-07
1.357079254e-07
1.415727159e-07
1.47207338e-07
1.526369262e-07
1.578823459e-07
1.629611443e-07
1.678882432e-07
1.726764577e-07
1.773368905e-07
1.818792348e-07
1.863120106e-07
1.90642753e-07
1.948781618e-07
1.99024223e-07
2.030863071e-07
2.07069249e-07
2.109774144e-07
2.148147531e-07
2.185848448e-07
2.222909403e-07
2.259360077e-07
2.295228106e-07
2.330540889e-07
2.365330539e-07
2.399648221e-07
2.43360518e-07
2.466792143e-07
3.475104456e-07
1.499658443e-06
2.678406426e-08
4.773329062e-08
6.218773417e-08
7.394336104e-08
8.411119255e-08
9.320066237e-08
1.014959188e-07
1.091746679e-07
1.163568238e-07
1.231278302e-07
1.29551118e-07
1.35675311e-07
1.415386548e-07
1.471718762e-07
1.526001021e-07
1.578441915e-07
1.629216855e-07
1.678475012e-07
1.726344499e-07
1.772936294e-07
1.818347272e-07
1.862662576e-07
1.905957491e-07
1.948298937e-07
1.989746684e-07
2.030354321e-07
2.070170054e-07
2.109237346e-07
2.147595445e-07
2.185279794e-07
2.222322391e-07
2.258752128e-07
2.294595281e-07
2.329876556e-07
2.364621725e-07
2.398864429e-07
2.432657947e-07
2.464869088e-07
3.55066833e-07
1.501578103e-06
2.6780415e-08
4.772680736e-08
6.217929412e-08
7.393332736e-08
8.409977769e-08
9.318800953e-08
1.014821324e-07
1.091598279e-07
1.163409937e-07
1.231110612e-07
1.295334525e-07
1.35656784e-07
1.415192958e-07
1.471517095e-07
1.525791478e-07
1.578224658e-07
1.628992011e-07
1.678242674e-07
1.726104723e-07
1.7726891e-07
1.818092643e-07
1.862400453e-07
1.905687767e-07
1.948021454e-07
1.989461218e-07
2.030060573e-07
2.069867633e-07
2.108925752e-07
2.147274036e-07
2.184947758e-07
2.221978689e-07
2.258395406e-07
2.294223674e-07
2.329487152e-07
2.364208978e-07
2.398415349e-07
2.432131319e-07
2.462812051e-07
3.651220548e-07
1.501582267e-06
2.677660666e-08
4.772003756e-08
6.21704798e-08
7.392284833e-08
8.408785622e-08
9.317479551e-08
1.014677351e-07
1.091443314e-07
1.163244644e-07
1.230935531e-07
1.295150102e-07
1.356374446e-07
1.414990903e-07
1.471306641e-07
1.525572842e-07
1.577998018e-07
1.628757509e-07
1.678000419e-07
1.72585479e-07
1.772431534e-07
1.817827453e-07
1.862127612e-07
1.905407211e-07
1.947733076e-07
1.989164864e-07
2.029756038e-07
2.069554654e-07
2.108604008e-07
2.146943143e-07
2.184607278e-07
2.221628142e-07
2.258034296e-07
2.293851494e-07
2.329103281e-07
2.363812135e-07
2.39800184e-07
2.431676904e-07
2.459304092e-07
3.770633615e-07
1.501573348e-06
2.677281081e-08
4.771329007e-08
6.216169459e-08
7.391240405e-08
8.40759745e-08
9.316162587e-08
1.014533867e-07
1.09128888e-07
1.163079924e-07
1.230761067e-07
1.29496634e-07
1.35618176e-07
1.414789607e-07
1.471096998e-07
1.525355075e-07
1.577772311e-07
1.628524013e-07
1.677759254e-07
1.725606046e-07
1.77217527e-07
1.817563701e-07
1.861856376e-07
1.905128463e-07
1.94744676e-07
1.988870894e-07
2.029454299e-07
2.069245011e-07
2.10828631e-07
2.14661725e-07
2.18427309e-07
2.221285664e-07
2.257683726e-07
2.293493346e-07
2.328738491e-07
2.363441997e-07
2.397627613e-07
2.431274661e-07
2.454434247e-07
3.845579925e-07
1.501585036e-06
2.676901762e-08
4.770654721e-08
6.21529154e-08
7.390196704e-08
8.406410129e-08
9.314846602e-08
1.014390495e-07
1.091134572e-07
1.162915349e-07
1.230586766e-07
1.294782763e-07
1.355989284e-07
1.414588549e-07
1.470887629e-07
1.525137621e-07
1.577546966e-07
1.628290937e-07
1.677518577e-07
1.725357872e-07
1.771919679e-07
1.817300748e-07
1.861586092e-07
1.904850862e-07
1.947161834e-07
1.988578623e-07
2.029154658e-07
2.068937979e-07
2.107971893e-07
2.146295515e-07
2.183944219e-07
2.220950037e-07
2.25734204e-07
2.293146776e-07
2.328388855e-07
2.363091848e-07
2.397280445e-07
2.430898224e-07
2.450718058e-07
3.895297994e-07
1.501579655e-06
2.676522803e-08
4.769981065e-08
6.214414441e-08
7.389153991e-08
8.405223958e-08
9.31353193e-08
1.014247271e-07
1.090980431e-07
1.16275096e-07
1.230412674e-07
1.294599421e-07
1.355797071e-07
1.414387789e-07
1.470678595e-07
1.524920549e-07
1.577322055e-07
1.628058356e-07
1.67727847e-07
1.725110357e-07
1.771664854e-07
1.81703869e-07
1.861316865e-07
1.904574514e-07
1.946878407e-07
1.988288159e-07
2.02885721e-07
2.06863363e-07
2.107660783e-07
2.14597788e-07
2.183620457e-07
2.220620794e-07
2.257008332e-07
2.292810139e-07
2.328051497e-07
2.362756722e-07
2.396951708e-07
2.430546671e-07
2.447908006e-07
3.929908e-07
1.501551394e-06
2.676144233e-08
4.769308086e-08
6.213538225e-08
7.388112343e-08
8.404039024e-08
9.312218672e-08
1.014104206e-07
1.09082647e-07
1.162586772e-07
1.230238808e-07
1.294416331e-07
1.355605142e-07
1.414187347e-07
1.470469921e-07
1.524703883e-07
1.577097605e-07
1.627826302e-07
1.677038966e-07
1.724863537e-07
1.771410833e-07
1.816777569e-07
1.861048734e-07
1.904299458e-07
1.946596511e-07
1.987999522e-07
2.028561955e-07
2.068331926e-07
2.107352876e-07
2.145664139e-07
2.183301431e-07
2.220297298e-07
2.256681552e-07
2.292481748e-07
2.32772376e-07
2.362432514e-07
2.396634881e-07
2.430212286e-07
2.44572096e-07
3.954778517e-07
1.50150073e-06
2.67576608e-08
4.768635836e-08
6.212662959e-08
7.38707184e-08
8.402855423e-08
9.310906934e-08
1.013961314e-07
1.090672702e-07
1.162422801e-07
1.230065184e-07
1.294233512e-07
1.355413516e-07
1.413987245e-07
1.470261629e-07
1.524487648e-07
1.576873644e-07
1.627594803e-07
1.676800095e-07
1.724617443e-07
1.771157647e-07
1.816517414e-07
1.860781726e-07
1.904025714e-07
1.946316157e-07
1.987712703e-07
2.028268852e-07
2.06803278e-07
2.107048016e-07
2.145354024e-07
2.182986707e-07
2.219978867e-07
2.256360657e-07
2.292160051e-07
2.327403388e-07
2.362116019e-07
2.39632552e-07
2.429888778e-07
2.443972963e-07
3.97317027e-07
1.50142987e-06
2.675388372e-08
4.767964362e-08
6.211788704e-08
7.386032556e-08
8.401673238e-08
9.309596812e-08
1.013818604e-07
1.090519139e-07
1.162259058e-07
1.229891815e-07
1.294050979e-07
1.355222209e-07
1.413787501e-07
1.470053738e-07
1.524271865e-07
1.576650192e-07
1.62736388e-07
1.676561879e-07
1.724372095e-07
1.770905316e-07
1.816258242e-07
1.860515853e-07
1.903753284e-07
1.94603733e-07
1.987427665e-07
2.027977832e-07
2.067736071e-07
2.106746005e-07
2.145047228e-07
2.182675821e-07
2.219664822e-07
2.256044672e-07
2.291843682e-07
2.327088529e-07
2.36180482e-07
2.396020592e-07
2.429571946e-07
2.442540854e-07
3.987090512e-07
1.501341387e-06
2.675011131e-08
4.767293704e-08
6.210915514e-08
7.384994555e-08
8.400492545e-08
9.308288391e-08
1.013676085e-07
1.09036579e-07
1.162095556e-07
1.229718714e-07
1.293868744e-07
1.355031236e-07
1.41358813e-07
1.469846265e-07
1.52405655e-07
1.576427266e-07
1.627133551e-07
1.676324335e-07
1.724127509e-07
1.770653852e-07
1.816000059e-07
1.860251111e-07
1.903482154e-07
1.945759999e-07
1.987144351e-07
2.0276888e-07
2.067441652e-07
2.106446621e-07
2.144743427e-07
2.182368314e-07
2.219354518e-07
2.25573272e-07
2.291531484e-07
2.32677771e-07
2.361497129e-07
2.395718059e-07
2.429258991e-07
2.441340974e-07
3.997866691e-07
1.501237768e-06
2.67463438e-08
4.766623899e-08
6.210043437e-08
7.383957896e-08
8.399313412e-08
9.306981747e-08
1.013533767e-07
1.090212666e-07
1.161932304e-07
1.229545892e-07
1.29368682e-07
1.354840609e-07
1.413389144e-07
1.469639222e-07
1.523841717e-07
1.57620488e-07
1.626903828e-07
1.676087472e-07
1.723883691e-07
1.770403257e-07
1.815742861e-07
1.859987489e-07
1.903212296e-07
1.945484117e-07
1.986862687e-07
2.027401644e-07
2.067149358e-07
2.106149632e-07
2.144442299e-07
2.182063742e-07
2.219047366e-07
2.255424037e-07
2.291222497e-07
2.326469782e-07
2.361191647e-07
2.395416573e-07
2.428948132e-07
2.440314056e-07
4.006311644e-07
1.501121202e-06
2.674258138e-08
4.765954982e-08
6.209172518e-08
7.382922629e-08
8.398135895e-08
9.305676944e-08
1.013391657e-07
1.090059774e-07
1.161769311e-07
1.229373358e-07
1.293505215e-07
1.354650336e-07
1.413190553e-07
1.469432619e-07
1.523627373e-07
1.575983041e-07
1.626674717e-07
1.675851295e-07
1.723640643e-07
1.770153527e-07
1.815486637e-07
1.859724962e-07
1.902943674e-07
1.945209626e-07
1.986582588e-07
2.027116242e-07
2.06685902e-07
2.105854806e-07
2.14414353e-07
2.181761695e-07
2.21874284e-07
2.255117969e-07
2.290915943e-07
2.326163863e-07
2.360887446e-07
2.395115255e-07
2.428638202e-07
2.439418439e-07
4.013009962e-07
1.500993549e-06
2.673882419e-08
4.765286978e-08
6.208302791e-08
7.381888797e-08
8.396960045e-08
9.304374037e-08
1.013249759e-07
1.08990712e-07
1.161606583e-07
1.229201118e-07
1.293323938e-07
1.354460427e-07
1.412992365e-07
1.469226463e-07
1.523413527e-07
1.575761755e-07
1.626446221e-07
1.675615803e-07
1.72339836e-07
1.76990465e-07
1.815231365e-07
1.859463501e-07
1.90267624e-07
1.94493646e-07
1.98630396e-07
2.026832466e-07
2.066570467e-07
2.105561915e-07
2.143846827e-07
2.181461802e-07
2.218440482e-07
2.254813969e-07
2.290611197e-07
2.325859282e-07
2.360583865e-07
2.394813547e-07
2.428328449e-07
2.438624011e-07
4.018378543e-07
1.500856369e-06
2.673507239e-08
4.764619911e-08
6.207434285e-08
7.380856436e-08
8.395785901e-08
9.303073071e-08
1.01310808e-07
1.08975471e-07
1.161444126e-07
1.229029179e-07
1.293142993e-07
1.354270886e-07
1.412794584e-07
1.469020758e-07
1.52320018e-07
1.575541023e-07
1.626218338e-07
1.675380993e-07
1.723156833e-07
1.769656612e-07
1.814977023e-07
1.859203069e-07
1.902409944e-07
1.944664548e-07
1.986026708e-07
2.02655019e-07
2.066283532e-07
2.105270747e-07
2.143551921e-07
2.181163732e-07
2.218139897e-07
2.254511585e-07
2.290307765e-07
2.325555537e-07
2.360280445e-07
2.394511103e-07
2.428018398e-07
2.437908588e-07
4.022717924e-07
1.500710965e-06
2.673132607e-08
4.763953797e-08
6.206567025e-08
7.379825572e-08
8.394613492e-08
9.301774078e-08
1.012966623e-07
1.089602547e-07
1.161281943e-07
1.228857544e-07
1.292962385e-07
1.354081717e-07
1.412597214e-07
1.468815506e-07
1.522987334e-07
1.575320842e-07
1.625991066e-07
1.675146855e-07
1.722916047e-07
1.769409391e-07
1.814723581e-07
1.858943626e-07
1.902144731e-07
1.944393816e-07
1.985750735e-07
2.026269288e-07
2.065998055e-07
2.104981101e-07
2.143258569e-07
2.180867194e-07
2.21784075e-07
2.254210445e-07
2.290005259e-07
2.325252253e-07
2.359976869e-07
2.394207721e-07
2.427707755e-07
2.437255564e-07
4.026249099e-07
1.500558366e-06
2.672758531e-08
4.763288651e-08
6.205701025e-08
7.378796225e-08
8.39344284e-08
9.30047708e-08
1.012825389e-07
1.089450633e-07
1.161120037e-07
1.228686215e-07
1.292782114e-07
1.35389292e-07
1.412400255e-07
1.468610706e-07
1.522774985e-07
1.575101209e-07
1.625764395e-07
1.674913378e-07
1.722675986e-07
1.769162965e-07
1.814471007e-07
1.858685127e-07
1.901880543e-07
1.94412419e-07
1.985475946e-07
2.025989639e-07
2.065713888e-07
2.104692797e-07
2.142966554e-07
2.180571939e-07
2.217542761e-07
2.253910248e-07
2.289703376e-07
2.324949155e-07
2.359672923e-07
2.393903292e-07
2.427396343e-07
2.436652321e-07
4.029137459e-07
1.500399314e-06
2.672385016e-08
4.762624477e-08
6.204836295e-08
7.377768404e-08
8.392273956e-08
9.29918209e-08
1.012684381e-07
1.089298971e-07
1.16095841e-07
1.228515193e-07
1.292602182e-07
1.353704496e-07
1.412203704e-07
1.468406356e-07
1.522563129e-07
1.574882117e-07
1.625538316e-07
1.674680548e-07
1.722436632e-07
1.768917307e-07
1.814219267e-07
1.85842753e-07
1.901617324e-07
1.943855598e-07
1.98520225e-07
2.025711133e-07
2.065430894e-07
2.104405672e-07
2.142675687e-07
2.18027775e-07
2.217245694e-07
2.253610753e-07
2.289401884e-07
2.324646042e-07
2.359368468e-07
2.39359777e-07
2.427084062e-07
2.436089133e-07
4.031509263e-07
1.500234882e-06
2.672012064e-08
4.761961281e-08
6.203972839e-08
7.376742114e-08
8.391106843e-08
9.29788911e-08
1.012543598e-07
1.089147559e-07
1.160797059e-07
1.228344477e-07
1.292422587e-07
1.353516442e-07
1.41200756e-07
1.468202451e-07
1.522351759e-07
1.574663556e-07
1.625312816e-07
1.674448349e-07
1.722197962e-07
1.76867239e-07
1.813968325e-07
1.858170789e-07
1.901355017e-07
1.943587969e-07
1.98492956e-07
2.025433664e-07
2.065148949e-07
2.104119581e-07
2.142385802e-07
2.179984447e-07
2.216949358e-07
2.253311766e-07
2.289100604e-07
2.324342768e-07
2.359063413e-07
2.393291147e-07
2.426770863e-07
2.435558399e-07
4.033462382e-07
1.500065487e-06
2.671639674e-08
4.761299058e-08
6.203110651e-08
7.375717349e-08
8.389941496e-08
9.296598131e-08
1.012403039e-07
1.088996396e-07
1.160635984e-07
1.228174065e-07
1.292243326e-07
1.353328753e-07
1.411811817e-07
1.467998984e-07
1.522140868e-07
1.574445516e-07
1.625087883e-07
1.674216763e-07
1.721959954e-07
1.768428186e-07
1.813718147e-07
1.857914861e-07
1.901093568e-07
1.943321238e-07
1.984657798e-07
2.025157137e-07
2.064867942e-07
2.103834395e-07
2.142096758e-07
2.179691875e-07
2.216653594e-07
2.253013134e-07
2.288799399e-07
2.324039232e-07
2.358757708e-07
2.392983439e-07
2.426456725e-07
2.435054099e-07
4.035074144e-07
1.499891653e-06
2.671267843e-08
4.760637802e-08
6.202249723e-08
7.374694097e-08
8.388777899e-08
9.295309135e-08
1.012262702e-07
1.08884548e-07
1.160475182e-07
1.228003953e-07
1.292064394e-07
1.353141426e-07
1.411616468e-07
1.467795947e-07
1.521930446e-07
1.574227985e-07
1.6248635e-07
1.673985772e-07
1.721722586e-07
1.768184666e-07
1.813468697e-07
1.857659702e-07
1.900832925e-07
1.943055342e-07
1.984386889e-07
2.024881466e-07
2.064587774e-07
2.103550006e-07
2.141808434e-07
2.179399908e-07
2.216358274e-07
2.252714736e-07
2.288498168e-07
2.323735364e-07
2.358451325e-07
2.392674676e-07
2.426141648e-07
2.434571397e-07
4.036406525e-07
1.499713799e-06
2.670896564e-08
4.759977501e-08
6.201390038e-08
7.373672337e-08
8.387616029e-08
9.294022097e-08
1.012122584e-07
1.088694807e-07
1.160314649e-07
1.227834136e-07
1.291885786e-07
1.352954453e-07
1.411421506e-07
1.467593331e-07
1.521720481e-07
1.574010949e-07
1.624639653e-07
1.673755356e-07
1.721485835e-07
1.767941803e-07
1.813219941e-07
1.857405272e-07
1.90057304e-07
1.942790225e-07
1.984116767e-07
2.024606577e-07
2.064308359e-07
2.103266318e-07
2.141520728e-07
2.179108441e-07
2.216063295e-07
2.25241648e-07
2.288196836e-07
2.323431114e-07
2.358144253e-07
2.392364896e-07
2.425825642e-07
2.434106358e-07
4.037509863e-07
1.499532259e-06
2.670525828e-08
4.759318138e-08
6.200531575e-08
7.372652043e-08
8.386455855e-08
9.292736979e-08
1.011982682e-07
1.088544373e-07
1.160154378e-07
1.227664609e-07
1.291707496e-07
1.352767827e-07
1.411226922e-07
1.467391127e-07
1.521510961e-07
1.573794394e-07
1.624416323e-07
1.673525496e-07
1.721249676e-07
1.767699568e-07
1.812971848e-07
1.857151534e-07
1.900313869e-07
1.942525835e-07
1.983847375e-07
2.024332401e-07
2.064029625e-07
2.102983251e-07
2.141233557e-07
2.178817389e-07
2.215768577e-07
2.252118293e-07
2.287895349e-07
2.323126453e-07
2.357836497e-07
2.392054141e-07
2.425508722e-07
2.433655726e-07
4.038425472e-07
1.499347307e-06
2.670155625e-08
4.758659691e-08
6.199674305e-08
7.371633182e-08
8.385297338e-08
9.291453739e-08
1.011842989e-07
1.088394172e-07
1.159994365e-07
1.227495365e-07
1.291529515e-07
1.352581539e-07
1.411032706e-07
1.467189321e-07
1.521301874e-07
1.573578306e-07
1.624193495e-07
1.673296172e-07
1.721014088e-07
1.767457937e-07
1.812724387e-07
1.856898452e-07
1.900055372e-07
1.942262127e-07
1.98357866e-07
2.024058883e-07
2.063751509e-07
2.10270074e-07
2.140946852e-07
2.178526685e-07
2.215474058e-07
2.251820123e-07
2.287593668e-07
2.322821366e-07
2.357528064e-07
2.39174245e-07
2.425190902e-07
2.433216768e-07
4.039187517e-07
1.499159157e-06
2.66978594e-08
4.758002136e-08
6.198818196e-08
7.370615714e-08
8.384140431e-08
9.290172323e-08
1.0117035e-07
1.088244197e-07
1.159834602e-07
1.227326395e-07
1.291351834e-07
1.352395579e-07
1.410838847e-07
1.466987904e-07
1.521093205e-07
1.57336267e-07
1.623971152e-07
1.673067365e-07
1.720779048e-07
1.767216883e-07
1.81247753e-07
1.856645995e-07
1.899797514e-07
1.941999062e-07
1.983310579e-07
2.023785976e-07
2.06347396e-07
2.102418732e-07
2.140660561e-07
2.178236279e-07
2.215179691e-07
2.251521934e-07
2.28729177e-07
2.322515843e-07
2.357218968e-07
2.391429863e-07
2.424872198e-07
2.432787138e-07
4.039824897e-07
1.498967974e-06
2.669416758e-08
4.757345442e-08
6.19796321e-08
7.369599592e-08
8.382985082e-08
9.288892672e-08
1.011564209e-07
1.088094442e-07
1.159675081e-07
1.227157691e-07
1.291174445e-07
1.352209937e-07
1.410645333e-07
1.466786861e-07
1.520884942e-07
1.573147469e-07
1.623749275e-07
1.672839056e-07
1.720544535e-07
1.766976384e-07
1.812231251e-07
1.856394135e-07
1.899540263e-07
1.941736605e-07
1.983043096e-07
2.023513639e-07
2.063196939e-07
2.102137186e-07
2.140374644e-07
2.177946132e-07
2.214885445e-07
2.2512237e-07
2.286989641e-07
2.322209888e-07
2.356909227e-07
2.391116417e-07
2.42455262e-07
2.43236477e-07
4.040362657e-07
1.498773872e-06
2.66904806e-08
4.756689577e-08
6.197109303e-08
7.368584764e-08
8.381831229e-08
9.287614717e-08
1.011425108e-07
1.087944897e-07
1.159515792e-07
1.226989242e-07
1.290997335e-07
1.3520246e-07
1.410452152e-07
1.466586178e-07
1.520677068e-07
1.572932688e-07
1.623527848e-07
1.672611227e-07
1.720310531e-07
1.766736419e-07
1.811985528e-07
1.856142846e-07
1.899283593e-07
1.941474729e-07
1.982776181e-07
2.023241845e-07
2.062920414e-07
2.101856073e-07
2.140089073e-07
2.177656222e-07
2.2145913e-07
2.250925409e-07
2.286687277e-07
2.321903505e-07
2.35659886e-07
2.390802144e-07
2.424232171e-07
2.431947799e-07
4.040822838e-07
1.498576923e-06
2.668679826e-08
4.756034504e-08
6.196256425e-08
7.367571173e-08
8.380678805e-08
9.286338382e-08
1.011286188e-07
1.087795554e-07
1.159356727e-07
1.226821039e-07
1.290820494e-07
1.351839557e-07
1.410259291e-07
1.466385843e-07
1.52046957e-07
1.572718311e-07
1.623306854e-07
1.672383858e-07
1.720077014e-07
1.766496966e-07
1.811740338e-07
1.855892107e-07
1.899027482e-07
1.941213411e-07
1.982509812e-07
2.022970569e-07
2.062644366e-07
2.101575374e-07
2.139803832e-07
2.177366534e-07
2.214297248e-07
2.25062706e-07
2.286384684e-07
2.321596706e-07
2.356287884e-07
2.39048707e-07
2.423910847e-07
2.431534487e-07
4.041225667e-07
1.498377146e-06
2.668312034e-08
4.755380181e-08
6.195404523e-08
7.366558752e-08
8.379527736e-08
9.285063584e-08
1.01114744e-07
1.087646402e-07
1.159197873e-07
1.226653069e-07
1.290643909e-07
1.351654794e-07
1.410066735e-07
1.466185839e-07
1.520262431e-07
1.572504321e-07
1.623086275e-07
1.672156933e-07
1.719843968e-07
1.766258008e-07
1.811495664e-07
1.8556419e-07
1.898771911e-07
1.940952634e-07
1.982243973e-07
2.022699799e-07
2.062368783e-07
2.10129508e-07
2.139518915e-07
2.177077069e-07
2.214003291e-07
2.250328658e-07
2.286081871e-07
2.321289507e-07
2.355976321e-07
2.390171219e-07
2.423588638e-07
2.431123161e-07
4.041590554e-07
1.498174515e-06
2.667944658e-08
4.754726562e-08
6.194553538e-08
7.365547431e-08
8.378377939e-08
9.283790231e-08
1.011008855e-07
1.087497431e-07
1.159039219e-07
1.22648532e-07
1.290467567e-07
1.351470297e-07
1.409874469e-07
1.465986152e-07
1.520055635e-07
1.572290702e-07
1.622866095e-07
1.671930434e-07
1.719611374e-07
1.766019528e-07
1.81125149e-07
1.855392209e-07
1.898516867e-07
1.940692386e-07
1.981978654e-07
2.022429529e-07
2.062093661e-07
2.101015192e-07
2.139234329e-07
2.176787834e-07
2.213709445e-07
2.250030223e-07
2.285778859e-07
2.320981929e-07
2.355664188e-07
2.389854609e-07
2.423265522e-07
2.430712149e-07
4.041936709e-07
1.49796895e-06
2.667577671e-08
4.7540736e-08
6.193703404e-08
7.364537132e-08
8.377229327e-08
9.282518226e-08
1.010870421e-07
1.087348629e-07
1.158880752e-07
1.226317778e-07
1.290291454e-07
1.35128605e-07
1.409682479e-07
1.465786765e-07
1.519849165e-07
1.572077437e-07
1.622646297e-07
1.671704345e-07
1.719379217e-07
1.765781509e-07
1.8110078e-07
1.855143022e-07
1.89826234e-07
1.94043266e-07
1.981713854e-07
2.022159758e-07
2.061819008e-07
2.100735722e-07
2.138950089e-07
2.176498852e-07
2.213415732e-07
2.249731779e-07
2.285475675e-07
2.320673996e-07
2.355351507e-07
2.389537255e-07
2.422941467e-07
2.430299718e-07
4.042283899e-07
1.497760314e-06
2.667211044e-08
4.75342124e-08
6.192854052e-08
7.363527773e-08
8.376081805e-08
9.28124746e-08
1.010732127e-07
1.087199984e-07
1.15872246e-07
1.226150429e-07
1.290115553e-07
1.351102039e-07
1.409490747e-07
1.465587661e-07
1.519643005e-07
1.571864508e-07
1.622426863e-07
1.671478648e-07
1.719147481e-07
1.765543939e-07
1.810764583e-07
1.854894328e-07
1.898008323e-07
1.940173455e-07
1.981449574e-07
2.021890497e-07
2.061544837e-07
2.10045669e-07
2.138666222e-07
2.176210155e-07
2.213122191e-07
2.249433365e-07
2.285172356e-07
2.320365739e-07
2.355038298e-07
2.389219168e-07
2.42261643e-07
2.429883993e-07
4.042653352e-07
1.497548409e-06
2.666844745e-08
4.752769425e-08
6.192005407e-08
7.362519263e-08
8.37493527e-08
9.279977822e-08
1.01059396e-07
1.087051481e-07
1.158564327e-07
1.225983258e-07
1.28993985e-07
1.350918247e-07
1.409299256e-07
1.465388822e-07
1.519437136e-07
1.571651898e-07
1.622207776e-07
1.671253328e-07
1.71891615e-07
1.765306802e-07
1.810521827e-07
1.854646121e-07
1.897754814e-07
1.939914771e-07
1.981185823e-07
2.02162176e-07
2.061271172e-07
2.100178128e-07
2.138382768e-07
2.175921788e-07
2.212828869e-07
2.249135032e-07
2.284868947e-07
2.320057198e-07
2.354724589e-07
2.388900356e-07
2.42229035e-07
2.429462876e-07
4.043069132e-07
1.497332961e-06
2.666478739e-08
4.752118095e-08
6.191157389e-08
7.361511508e-08
8.373789612e-08
9.278709189e-08
1.010455907e-07
1.086903106e-07
1.158406339e-07
1.225816248e-07
1.289764328e-07
1.350734655e-07
1.409107988e-07
1.465190231e-07
1.51923154e-07
1.571439587e-07
1.621989018e-07
1.671028366e-07
1.718685208e-07
1.765070086e-07
1.810279523e-07
1.854398395e-07
1.897501812e-07
1.939656616e-07
1.980922613e-07
2.02135357e-07
2.060998044e-07
2.099900077e-07
2.138099776e-07
2.175633809e-07
2.212535831e-07
2.248836843e-07
2.28456551e-07
2.319748421e-07
2.35441041e-07
2.388580828e-07
2.421963157e-07
2.42903393e-07
4.043559643e-07
1.497113605e-06
2.666112992e-08
4.751467183e-08
6.190309915e-08
7.360504406e-08
8.372644718e-08
9.277441433e-08
1.010317954e-07
1.086754846e-07
1.158248479e-07
1.225649383e-07
1.289588968e-07
1.350551246e-07
1.408916925e-07
1.464991867e-07
1.519026197e-07
1.571227558e-07
1.62177057e-07
1.670803745e-07
1.718454641e-07
1.764833778e-07
1.810037661e-07
1.854151146e-07
1.897249318e-07
1.939398998e-07
1.980659965e-07
2.021085955e-07
2.060725493e-07
2.099622588e-07
2.137817309e-07
2.175346291e-07
2.212243156e-07
2.248538881e-07
2.284262121e-07
2.319439473e-07
2.354095804e-07
2.388260596e-07
2.421634759e-07
2.428594244e-07
4.044159609e-07
1.496889864e-06
2.665747464e-08
4.750816623e-08
6.189462893e-08
7.35949785e-08
8.371500465e-08
9.276174418e-08
1.010180086e-07
1.086606682e-07
1.15809073e-07
1.225482645e-07
1.289413752e-07
1.350367999e-07
1.408726045e-07
1.464793711e-07
1.518821087e-07
1.571015789e-07
1.621552412e-07
1.670579448e-07
1.718224432e-07
1.764597865e-07
1.809796233e-07
1.853904369e-07
1.896997337e-07
1.93914193e-07
1.980397899e-07
2.020818948e-07
2.060453567e-07
2.099345723e-07
2.137535444e-07
2.175059322e-07
2.211950941e-07
2.248241246e-07
2.283958877e-07
2.319130436e-07
2.353780826e-07
2.387939678e-07
2.421305048e-07
2.428140239e-07
4.044912882e-07
1.496661116e-06
2.665382115e-08
4.75016634e-08
6.188616231e-08
7.358491729e-08
8.370356724e-08
9.274908003e-08
1.010042288e-07
1.0864586e-07
1.157933075e-07
1.225316014e-07
1.28923866e-07
1.350184895e-07
1.408535328e-07
1.46459574e-07
1.518616187e-07
1.570804258e-07
1.621334524e-07
1.670355454e-07
1.717994564e-07
1.764362334e-07
1.809555229e-07
1.853658061e-07
1.896745871e-07
1.938885425e-07
1.980136442e-07
2.020552591e-07
2.060182321e-07
2.099069554e-07
2.13725427e-07
2.174773009e-07
2.211659306e-07
2.247944065e-07
2.283655902e-07
2.318821417e-07
2.353465551e-07
2.387618103e-07
2.420973898e-07
2.427667403e-07
4.045877045e-07
1.496426551e-06
2.665016904e-08
4.74951626e-08
6.187769829e-08
7.357485923e-08
8.369213361e-08
9.273642035e-08
1.009904543e-07
1.08631058e-07
1.157775494e-07
1.225149471e-07
1.289063671e-07
1.350001911e-07
1.408344751e-07
1.464397931e-07
1.518411476e-07
1.570592944e-07
1.621116884e-07
1.670131743e-07
1.717765018e-07
1.764127168e-07
1.809314638e-07
1.85341222e-07
1.896494927e-07
1.938629499e-07
1.979875622e-07
2.020286927e-07
2.059911818e-07
2.098794166e-07
2.136973893e-07
2.174487478e-07
2.211368395e-07
2.247647494e-07
2.283353351e-07
2.318512558e-07
2.353150086e-07
2.387295927e-07
2.420641166e-07
2.427169918e-07
4.047131664e-07
1.496185107e-06
2.664651786e-08
4.748866305e-08
6.186923585e-08
7.35648031e-08
8.368070234e-08
9.272376359e-08
1.009766834e-07
1.086162605e-07
1.157617968e-07
1.224982995e-07
1.288888763e-07
1.349819026e-07
1.408154291e-07
1.464200261e-07
1.518206927e-07
1.570381821e-07
1.620899468e-07
1.669908293e-07
1.717535774e-07
1.763892351e-07
1.80907445e-07
1.853166838e-07
1.896244507e-07
1.938374166e-07
1.979615469e-07
2.020022005e-07
2.059642129e-07
2.098519653e-07
2.136694434e-07
2.174202877e-07
2.211078381e-07
2.247351723e-07
2.283051421e-07
2.318204041e-07
2.352834581e-07
2.386973237e-07
2.420306692e-07
2.426640121e-07
4.048793164e-07
1.495935355e-06
2.664286717e-08
4.748216392e-08
6.186077392e-08
7.355474761e-08
8.366927197e-08
9.27111081e-08
1.009629144e-07
1.086014656e-07
1.157460476e-07
1.224816565e-07
1.288713913e-07
1.349636213e-07
1.407963923e-07
1.464002704e-07
1.518002515e-07
1.570170863e-07
1.62068225e-07
1.669685079e-07
1.717306809e-07
1.763657864e-07
1.808834647e-07
1.852921908e-07
1.895994613e-07
1.938119442e-07
1.979356014e-07
2.019757875e-07
2.059373327e-07
2.098246118e-07
2.13641603e-07
2.173919379e-07
2.21078947e-07
2.247056986e-07
2.282750359e-07
2.317896109e-07
2.35251924e-07
2.386650176e-07
2.41997031e-07
2.426067738e-07
4.051042845e-07
1.495675329e-06
2.663921648e-08
4.747566438e-08
6.18523114e-08
7.354469144e-08
8.365784095e-08
9.269845216e-08
1.009491452e-07
1.085866711e-07
1.157302996e-07
1.224650157e-07
1.288539098e-07
1.34945345e-07
1.40777362e-07
1.463805232e-07
1.517798213e-07
1.569960043e-07
1.620465201e-07
1.669462072e-07
1.717078098e-07
1.763423683e-07
1.808595214e-07
1.85267742e-07
1.895745243e-07
1.937865337e-07
1.979097285e-07
2.019494587e-07
2.059105491e-07
2.097973675e-07
2.136138833e-07
2.17363718e-07
2.210501904e-07
2.246763563e-07
2.282450475e-07
2.317589075e-07
2.352204348e-07
2.386326964e-07
2.419631853e-07
2.425438846e-07
4.054174468e-07
1.495402221e-06
2.663556534e-08
4.746916357e-08
6.184384714e-08
7.353463321e-08
8.364640769e-08
9.268579399e-08
1.00935374e-07
1.08571875e-07
1.157145507e-07
1.224483747e-07
1.288364292e-07
1.349270708e-07
1.407583355e-07
1.463607817e-07
1.51759399e-07
1.569749329e-07
1.620248291e-07
1.669239244e-07
1.716849611e-07
1.763189782e-07
1.808356127e-07
1.852433356e-07
1.895496391e-07
1.937611858e-07
1.978839306e-07
2.019232191e-07
2.058838702e-07
2.097702442e-07
2.13586301e-07
2.173356502e-07
2.210215963e-07
2.246471794e-07
2.282152154e-07
2.317283343e-07
2.351890289e-07
2.386003924e-07
2.419291167e-07
2.424734678e-07
4.058755428e-07
1.495112152e-06
2.663191325e-08
4.746266061e-08
6.183537997e-08
7.352457148e-08
8.363497054e-08
9.267313173e-08
1.009215988e-07
1.085570751e-07
1.156987984e-07
1.224317311e-07
1.288189469e-07
1.349087961e-07
1.407393099e-07
1.463410428e-07
1.517389815e-07
1.569538688e-07
1.620031487e-07
1.66901656e-07
1.716621316e-07
1.76295613e-07
1.808117358e-07
1.852189695e-07
1.895248044e-07
1.937359005e-07
1.978582095e-07
2.018970729e-07
2.058573037e-07
2.097432542e-07
2.13558874e-07
2.173077591e-07
2.209931971e-07
2.246182084e-07
2.281855872e-07