/*--------------------------------*- C++ -*----------------------------------*\
| =========                 |                                                 |
| \\      /  F ield         | OpenFOAM: The Open Source CFD Toolbox           |
|  \\    /   O peration     | Version:  v1912                                 |
|   \\  /    A nd           | Website:  www.openfoam.com                      |
|    \\/     M anipulation  |                                                 |
\*---------------------------------------------------------------------------*/
FoamFile
{
    version     2.0;
    format      ascii;
    class       volScalarField;
    location    "0.1";
    object      alpha.gas;
}
// * * * * * * * * * * * * * * * * * * * * * * * * * * * * * * * * * * * * * //

dimensions      [0 0 0 0 0 0 0];


internalField   nonuniform List<scalar> 
4800
(
1.792719312e-242
1.74355305e-237
1.217568922e-232
6.038988243e-228
2.262527252e-223
6.690905239e-219
1.610778552e-214
3.228241905e-210
5.477040061e-206
7.967727098e-202
1.003773692e-197
1.103542967e-193
1.065013818e-189
9.062161511e-186
6.818970992e-182
4.545048598e-178
2.684182285e-174
1.402752611e-170
6.466239209e-167
2.614029041e-163
9.17959424e-160
2.782318903e-156
7.238191029e-153
1.48666389e-149
1.64253729e-149
1.629872991e-149
1.200885636e-125
2.211790756e-122
8.792396645e-122
0
1.259039862e-85
6.520583512e-81
1.575921113e-76
4.488273831e-77
2.040628344e-64
0
1.499018416e-53
8.613540755e-73
3.315176071e-34
0.01230264708
1.087355148e-241
9.909436631e-237
6.499108725e-232
3.029164845e-227
1.066762539e-222
2.965664179e-218
6.71171139e-214
1.264375409e-209
2.015937861e-205
2.755192259e-201
3.259564255e-197
3.363511241e-193
3.04484684e-189
2.428468199e-185
1.711480254e-181
1.067769788e-177
5.906768641e-174
2.90128357e-170
1.263420954e-166
4.862471357e-163
1.646150243e-159
4.890566062e-156
1.310332746e-152
3.007215421e-149
1.977073359e-146
1.319173467e-144
0
6.292661496e-115
2.265932173e-114
0
0
7.956232631e-75
1.241025151e-73
4.481476137e-77
1.022002346e-58
1.563866347e-78
1.109243831e-47
0
6.336820704e-05
0.01880799889
6.260942615e-240
6.506575855e-235
4.865877714e-230
2.586758865e-225
1.039309565e-220
3.297323024e-216
8.518511418e-212
1.832517295e-207
3.337921929e-203
5.2144936e-199
7.056363936e-195
8.336108737e-191
8.649501113e-187
7.919174075e-183
6.419850629e-179
4.619310312e-175
2.95478545e-171
1.681958611e-167
8.528212928e-164
3.859215517e-160
1.566172027e-156
5.757442093e-153
2.010292345e-149
4.726368114e-146
9.400568677e-141
3.966704938e-137
1.606806681e-158
6.388111267e-108
2.897705133e-107
1.938836489e-105
2.306432143e-104
2.730779596e-72
0
1.855025404e-59
3.105163336e-56
0
1.091463475e-43
0
9.610083918e-05
0.01894750553
1.065471212e-238
1.05103618e-233
7.447867758e-229
3.745719845e-224
1.42143017e-219
4.252044542e-215
1.033825683e-210
2.088725034e-206
3.564849068e-202
5.203953798e-198
6.559600773e-194
7.190910761e-190
6.891689321e-186
5.794705426e-182
4.282691597e-178
2.782627963e-174
1.58661312e-170
7.905465371e-167
3.416106011e-163
1.264083027e-159
3.921020187e-156
9.812276191e-153
1.832285228e-149
1.831609428e-149
7.915151604e-134
2.136549794e-130
1.469418867e-151
1.312801837e-104
1.433800036e-98
1.089028255e-98
2.200135318e-112
6.701565845e-73
0
1.570891417e-54
3.104680863e-56
8.519760394e-46
4.982620716e-42
0
0.0001135804804
0.01902028197
4.147149607e-239
4.269397255e-234
3.15736675e-229
1.65727108e-224
6.56414869e-220
2.049662502e-215
5.202463934e-211
1.097426909e-206
1.955846926e-202
2.981997496e-198
3.926726504e-194
4.498255003e-190
4.506835534e-186
3.96418755e-182
3.06900404e-178
2.096041094e-174
1.271640737e-170
6.971692655e-167
3.40981098e-163
1.446331429e-159
5.101622893e-156
1.396970531e-152
2.570579298e-149
6.736801153e-148
1.463489809e-130
2.225134261e-127
2.643152349e-145
1.895558758e-123
8.909527602e-95
3.964201246e-92
0
1.488594829e-74
9.58562662e-78
2.150483932e-52
3.125456756e-56
7.665810471e-44
2.584259684e-42
0
0.0001345113215
0.01918374688
2.680448202e-236
3.046929427e-231
2.484076015e-226
1.435072065e-221
6.245647462e-217
2.139197505e-212
5.945064786e-208
1.370419362e-203
2.663258723e-199
4.417169196e-195
6.309958739e-191
7.815887469e-187
8.433374814e-183
7.947718571e-179
6.545930322e-175
4.703983454e-171
2.936034562e-167
1.57824637e-163
7.201501394e-160
2.721387453e-156
8.145905549e-153
1.762085659e-149
2.122384616e-146
1.611890272e-134
7.743199079e-131
3.684930477e-128
2.682583128e-125
2.297864223e-129
2.253950553e-109
1.849556203e-86
0
1.453770928e-77
7.313004148e-97
1.758033296e-52
4.607480945e-50
3.174617957e-44
3.950353988e-44
0
0.0001723215402
0.01931712854
7.538259853e-238
8.425724536e-233
6.807892881e-228
3.92636902e-223
1.717540292e-218
5.950398279e-214
1.682761123e-209
3.97001321e-205
7.94097457e-201
1.363266285e-196
2.027519561e-192
2.630849335e-188
2.993836312e-184
2.998432164e-180
2.648119777e-176
2.062940539e-172
1.415374498e-168
8.520638243e-165
4.469175165e-161
2.019558331e-157
7.733384716e-154
2.461960268e-150
6.734517264e-147
2.694238225e-146
1.267561611e-128
1.61891786e-124
6.310219165e-123
2.126516353e-139
0
7.375026513e-84
1.461611025e-79
1.782182426e-76
0
4.28127393e-53
1.299928312e-49
1.921125786e-45
3.740960681e-48
1.90184346e-10
0.0002071240409
0.01939414336
8.221163164e-238
7.761488941e-233
5.270137953e-228
2.542128669e-223
9.258707059e-219
2.65922384e-214
6.208435231e-210
1.204228103e-205
1.972128202e-201
2.760013364e-197
3.331025678e-193
3.490109098e-189
3.189490862e-185
2.549525239e-181
1.784498468e-177
1.092836514e-173
5.839574938e-170
2.709928593e-166
1.084598009e-162
3.714454957e-159
1.088828008e-155
2.881332666e-152
9.243739429e-149
1.844336278e-146
7.232687954e-126
1.48366404e-121
6.960254679e-120
3.415562661e-119
0
2.944301045e-110
4.244220941e-77
4.355250158e-74
0
1.596083382e-54
1.162116637e-50
1.015074894e-47
3.820913963e-48
1.900009615e-09
0.0002292488477
0.0194424611
1.777751741e-236
1.495769693e-231
9.054310074e-227
3.893857147e-222
1.264220005e-217
3.235643075e-213
6.727642308e-209
1.161174585e-204
1.690236915e-200
2.099588204e-196
2.245196694e-192
2.079926889e-188
1.676296952e-184
1.178056282e-180
7.222085744e-177
3.855668366e-173
1.785054303e-169
7.113526581e-166
2.410980836e-162
6.819612974e-159
1.561262142e-155
2.743433222e-152
3.330182483e-149
2.093155689e-146
6.391764719e-125
1.352405314e-121
1.315125313e-120
1.261289607e-115
0
5.119357999e-81
1.976453988e-77
1.953366359e-77
1.361803151e-62
5.26464693e-57
4.247532117e-53
5.066848841e-49
3.757167119e-45
3.664804571e-09
0.0002439725585
0.01947427375
1.416709093e-236
1.183134519e-231
7.108452719e-227
3.034067647e-222
9.77611174e-218
2.483044404e-213
5.123564779e-209
8.776809442e-205
1.268294988e-200
1.564690347e-196
1.662929166e-192
1.532678048e-188
1.230842445e-184
8.63800447e-181
5.304869275e-177
2.851264697e-173
1.342439288e-169
5.615047981e-166
2.238279674e-162
8.221926713e-159
2.240936253e-155
3.479975699e-152
3.994302608e-149
1.041742353e-146
1.999330429e-125
2.693098629e-122
2.61111348e-122
1.653281446e-112
4.020876523e-85
1.578306732e-81
2.781344861e-90
4.768666494e-68
5.20697573e-63
9.591729543e-61
0
5.873658886e-50
7.305524063e-46
5.191323244e-09
0.0002543414588
0.01949587299
5.531792682e-233
4.731829542e-228
2.909053746e-223
1.268973994e-218
4.172519145e-214
1.079544035e-209
2.264171671e-205
3.932027147e-201
5.742001795e-197
7.131088087e-193
7.593312499e-189
6.971245164e-185
5.536513437e-181
3.80849429e-177
2.267992611e-173
1.168519855e-169
5.252002874e-166
2.199816473e-162
1.13973927e-158
4.538958897e-155
8.734068156e-152
3.858905214e-149
2.141706815e-146
7.745269629e-131
5.655957181e-127
1.792929563e-123
1.32879079e-118
0
9.006255196e-86
5.739957517e-83
2.811482456e-88
2.570741554e-68
1.427470839e-64
2.395152886e-65
0
1.609163439e-51
1.434032117e-47
6.480959594e-09
0.0002618872681
0.01951085979
1.829623997e-229
1.760807132e-224
1.230876551e-219
6.173551328e-215
2.360520602e-210
7.180212721e-206
1.788439084e-201
3.720630242e-197
6.552879202e-193
9.857959527e-189
1.273431228e-184
1.415630251e-180
1.35328449e-176
1.108180307e-172
7.714133868e-169
4.506888631e-165
2.165384643e-161
8.27894272e-158
2.381070991e-154
4.623367391e-151
4.626908568e-148
2.252154274e-146
3.635771783e-136
4.297006746e-132
1.627999422e-128
2.34988376e-123
0
3.685356928e-91
1.749754964e-87
5.539960942e-97
6.894093012e-77
8.072582711e-70
1.554729122e-67
7.514096902e-68
1.006626204e-74
4.48608396e-54
1.823624679e-50
7.554817624e-09
0.0002675235062
0.01952139933
5.884411803e-230
5.466274826e-225
3.646666849e-220
1.724302486e-215
6.137318193e-211
1.715899743e-206
3.880641299e-202
7.247777317e-198
1.134553569e-193
1.50427473e-189
1.701414537e-185
1.64863201e-181
1.370720906e-177
9.766989175e-174
5.938266983e-170
3.055139511e-166
1.311966702e-162
4.601805301e-159
1.273830061e-155
2.628546049e-152
3.628698128e-149
2.242127056e-146
1.360910817e-137
1.51522789e-134
0
2.281439314e-124
3.418511614e-97
2.820805116e-92
1.762395545e-90
2.313124828e-98
9.427384718e-77
7.310463881e-73
4.347972339e-85
1.388694116e-65
3.997789191e-62
7.182268931e-58
1.125497563e-54
8.443967386e-09
0.0002718290663
0.01952884568
3.810350956e-231
4.330076388e-226
3.57673848e-221
2.118613489e-216
9.554522088e-212
3.423184499e-207
1.003541492e-202
2.458600589e-198
5.112038692e-194
9.124308349e-190
1.409625989e-185
1.895849314e-181
2.227661357e-177
2.290561945e-173
2.060717144e-169
1.619343907e-165
1.108304346e-161
6.58756998e-158
3.403265603e-154
1.554825505e-150
6.670321011e-147
4.009033749e-143
1.749984368e-139
0
8.668010682e-139
3.375100361e-119
8.869671904e-98
1.251645955e-94
1.108153619e-94
9.410102417e-84
1.632644902e-78
1.335828761e-77
5.187568102e-85
2.078260011e-65
1.183985066e-62
3.122897705e-76
5.270507719e-56
9.180768425e-09
0.0002751820119
0.01953407784
5.930591856e-233
7.487909506e-228
6.850368555e-223
4.484808431e-218
2.233860504e-213
8.846179088e-209
2.872644524e-204
7.822455403e-200
1.815795345e-195
3.636467614e-191
6.338072492e-187
9.674019214e-183
1.299310928e-178
1.54297495e-174
1.631136828e-170
1.551810006e-166
1.348663288e-162
1.083126409e-158
7.966556728e-155
5.130762147e-151
2.60717228e-147
7.661357616e-144
0
0
0
3.539549488e-103
1.380999943e-99
7.140593337e-113
3.313369852e-91
2.009363753e-85
1.960943727e-82
0
3.336102577e-72
2.50588654e-66
3.66165945e-64
0
0
9.79384657e-09
0.0002778372401
0.01953768433
1.586071251e-235
2.03640918e-230
1.914452038e-225
1.305155104e-220
6.873462849e-216
2.923547948e-211
1.034466687e-206
3.103917569e-202
7.99133506e-198
1.777387092e-193
3.427088365e-189
5.738786941e-185
8.359211329e-181
1.063097989e-176
1.191812637e-172
1.202223561e-168
1.127871518e-164
1.016009807e-160
8.766904845e-157
6.842545538e-153
4.418813161e-149
1.76877022e-145
7.528975069e-142
1.85268926e-137
7.465247351e-110
1.648227922e-104
8.040519641e-103
6.295690902e-111
1.536376398e-91
2.83251073e-88
1.166042707e-87
5.283340446e-94
5.299439457e-73
1.791541992e-68
6.060172863e-67
0
0
1.030652321e-08
0.0002799683397
0.01954007141
3.949934536e-236
3.532571465e-231
2.278198308e-226
1.046095653e-221
3.635593975e-217
9.996500887e-213
2.24592778e-208
4.228873929e-204
6.821005892e-200
9.624100543e-196
1.214391772e-191
1.406748264e-187
1.550249599e-183
1.709265111e-179
1.987563351e-175
2.464558968e-171
3.103480944e-167
3.703254292e-163
3.896428131e-159
3.43024876e-155
2.547766609e-151
1.302159417e-147
0
7.192864716e-131
9.349753e-111
2.735695044e-107
4.029492387e-114
1.953701238e-98
2.898568443e-93
4.89007126e-92
7.042862401e-100
1.255738423e-80
5.752896905e-75
4.291922084e-72
3.219509208e-71
0
0
1.073770056e-08
0.0002816989752
0.01954152646
2.875242837e-232
2.494889882e-227
1.55527544e-222
6.871955816e-218
2.285373711e-213
5.971656195e-209
1.26427063e-204
2.221809561e-200
3.315047019e-196
4.309551291e-192
5.048200992e-188
5.546531283e-184
5.902217506e-180
6.097253582e-176
5.927579976e-172
5.181563745e-168
3.899110701e-164
2.425349686e-160
1.188473945e-156
4.227605016e-153
8.672654469e-150
0
0
1.470099062e-118
3.269892228e-113
1.173760113e-111
5.56560615e-114
4.450382391e-100
9.366843485e-97
1.102423776e-96
6.406031275e-100
3.321217833e-81
3.572725067e-78
6.384361071e-77
4.674339775e-76
0
0
1.110255749e-08
0.000283119247
0.01954225661
4.236528509e-229
3.856836655e-224
2.514847985e-219
1.158371835e-214
4.000250092e-210
1.080022684e-205
2.345978138e-201
4.18235696e-197
6.205801453e-193
7.73807132e-189
8.158429981e-185
7.29648828e-181
5.537829543e-177
3.558119045e-173
1.924334005e-169
8.675553935e-166
3.21142272e-162
9.537252443e-159
2.190720936e-155
3.658254974e-152
3.876480897e-149
1.985315471e-147
0
5.214106723e-120
2.408454169e-117
1.878194113e-117
6.786109678e-109
1.766001684e-103
8.382553372e-102
6.34784847e-102
1.134377076e-86
4.587811749e-83
1.023576385e-82
8.839362901e-82
6.494564225e-81
0
0
1.141328526e-08
0.0002842956784
0.01954241477
5.067132953e-229
4.641901374e-224
3.043765177e-219
1.408884733e-214
4.885507274e-210
1.32340191e-205
2.881607182e-201
5.144860363e-197
7.637582158e-193
9.517745069e-189
1.001757782e-184
8.933241376e-181
6.751935258e-177
4.314406815e-173
2.317188799e-169
1.035732274e-165
3.793777603e-162
1.112181044e-158
2.514982786e-155
4.127241705e-152
4.409450466e-149
2.102208768e-146
8.133018295e-127
4.92932459e-123
2.154362552e-130
2.016447964e-115
2.427932211e-110
1.828241674e-108
0
9.907331204e-93
5.366773588e-88
1.711586018e-86
2.036290218e-87
1.165173054e-86
8.672327911e-86
0
0
1.167960639e-08
0.0002852781723
0.01954212118
2.612661026e-226
2.6242967e-221
1.8824304e-216
9.50770416e-212
3.587602089e-207
1.05431451e-202
2.482300762e-198
4.774550774e-194
7.604232622e-190
1.011872994e-185
1.131032748e-181
1.064239209e-177
8.421399346e-174
5.57930873e-170
3.068231743e-166
1.380875111e-162
4.973776124e-159
1.38369713e-155
2.800111764e-152
3.676264423e-149
2.354851956e-146
4.069085401e-133
1.606362676e-128
8.726503871e-128
2.687489897e-130
2.091135157e-116
3.900669647e-113
1.879329231e-113
0
6.887544953e-94
8.574285765e-91
2.296704392e-91
3.657533143e-92
1.489067382e-91
1.122778463e-90
0
0
1.190931635e-08
0.0002861048343
0.01954145152
3.356431469e-227
3.657391983e-222
2.849140909e-217
1.564601059e-212
6.426773658e-208
2.058664194e-203
5.290629737e-199
1.112469824e-194
1.940191346e-190
2.832431351e-186
3.480664799e-182
3.609209766e-178
3.155943957e-174
2.317813787e-170
1.418299413e-166
7.134438074e-163
2.887763911e-159
9.087163457e-156
2.09648309e-152
3.16681269e-149
2.357058008e-146
6.931770102e-135
5.103301545e-132
1.677565501e-141
6.446222601e-125
4.455876762e-119
1.667603406e-117
1.315148388e-117
4.847408272e-102
9.774231353e-97
2.971491085e-95
2.932142409e-96
5.927830162e-97
1.864731345e-96
1.393635387e-95
0
0
1.210873636e-08
0.000286805219
0.01954047963
2.571426389e-229
2.977053291e-224
2.490165824e-219
1.485794193e-214
6.724284237e-210
2.414191496e-205
7.105369375e-201
1.758416737e-196
3.735066938e-192
6.924357063e-188
1.134842203e-183
1.657551712e-179
2.162140889e-175
2.506703026e-171
2.552336015e-167
2.239388267e-163
1.64896201e-159
9.845120637e-156
4.629085438e-152
2.000261363e-148
1.297401643e-144
1.255563731e-138
3.57934122e-137
1.895988287e-141
6.852299174e-127
7.680403058e-124
5.767597319e-130
1.710194179e-109
7.785138816e-104
1.559248267e-101
2.624496674e-100
3.561523642e-101
8.731807098e-102
2.308324101e-101
1.64915387e-100
0
0
1.228300615e-08
0.0002874025996
0.01953925793
9.296463526e-232
1.00928159e-226
7.985075136e-222
4.559046491e-217
2.009504199e-212
7.225843745e-208
2.221611327e-203
6.072560163e-199
1.513893193e-194
3.467017353e-190
7.232576513e-186
1.353475571e-181
2.238050874e-177
3.228401957e-173
4.01592218e-169
4.256064448e-165
3.783631204e-161
2.757735507e-157
1.597310357e-153
7.085528842e-150
2.25160087e-146
4.925736136e-144
3.477668977e-144
1.291464002e-134
1.987125078e-130
3.969669432e-129
1.822907864e-130
2.194468381e-110
3.312352774e-107
8.2776009e-107
1.953379055e-105
4.148667864e-106
1.176489895e-106
2.836985607e-106
1.865397564e-105
0
0
1.2436349e-08
0.0002879155581
0.01953782771
1.363539073e-231
1.280861757e-226
8.610806841e-222
4.091289001e-217
1.461374758e-212
4.106619616e-208
9.392965158e-204
1.797816777e-199
2.95031942e-195
4.242474944e-191
5.442026692e-187
6.297195072e-183
6.586848932e-179
6.18495007e-175
5.14450279e-171
3.729409265e-167
2.317931092e-163
1.216992189e-159
5.329152507e-156
1.937662063e-152
6.0134627e-149
2.247500896e-146
2.053933568e-141
4.350340509e-136
2.035062489e-134
2.318751931e-138
5.511835686e-118
6.416608704e-113
7.268180878e-112
4.698592103e-112
1.237747585e-110
4.7026306e-111
1.465277416e-111
3.458061492e-111
2.047214181e-110
0
0
1.25722807e-08
0.000288359123
0.01953622204
7.053420337e-233
6.901010629e-228
4.829680158e-223
2.386350286e-218
8.846632386e-214
2.571644522e-209
6.054135909e-205
1.184477003e-200
1.971255608e-196
2.856672325e-192
3.694214821e-188
4.36450768e-184
4.789893955e-180
4.898943055e-176
4.615055907e-172
3.91778199e-168
2.920152759e-164
1.858248448e-160
9.766681046e-157
4.054901527e-153
1.233552489e-149
2.205709091e-146
2.420914818e-142
3.272014892e-139
3.645234005e-139
2.875788055e-139
5.799187724e-120
1.610694761e-117
1.060310045e-116
3.490404984e-117
7.122044771e-116
5.245292835e-116
1.704913e-116
4.150378193e-116
2.223654791e-115
0
0
1.269375857e-08
0.0002887456018
0.01953446778
6.868102859e-235
6.808941744e-230
4.822099155e-225
2.406458192e-220
8.984725505e-216
2.618584184e-211
6.136163366e-207
1.181110897e-202
1.898302659e-198
2.582707976e-194
3.014647694e-190
3.06880166e-186
2.792521353e-182
2.363354163e-178
1.963163917e-174
1.670855569e-170
1.449303587e-166
1.215554895e-162
9.213413148e-159
5.935820978e-155
3.113729046e-151
1.274359375e-147
1.483171015e-144
1.994894641e-143
1.911217978e-143
1.523403438e-128
6.708303502e-124
7.698262293e-123
1.045443451e-121
3.049795323e-122
4.10596996e-121
5.780105546e-121
1.870760397e-121
4.85469458e-121
2.427496444e-120
0
0
1.28033032e-08
0.0002890852273
0.01953258701
3.378288358e-237
3.476114068e-232
2.564694669e-227
1.338765761e-222
5.250160739e-218
1.613986729e-213
4.005194521e-209
8.191440189e-205
1.401605734e-200
2.02848874e-196
2.503005512e-192
2.648565084e-188
2.413925755e-184
1.902600436e-180
1.303871395e-176
7.844294645e-173
4.212651455e-169
2.065991942e-165
9.396348049e-162
3.880927237e-158
1.352534911e-154
3.569175515e-151
2.488331497e-148
2.071220461e-146
7.495668696e-136
8.511602889e-131
4.637831138e-129
3.47429052e-128
8.246505017e-127
2.779915873e-127
2.589158321e-126
6.256522695e-126
1.951100358e-126
5.475963051e-126
2.670590854e-125
0
0
1.29030956e-08
0.000289386674
0.01953059813
4.59839214e-239
5.654394682e-234
4.987278533e-229
3.110992733e-224
1.456713017e-219
5.341578637e-215
1.579537909e-210
3.846244941e-206
7.830589293e-202
1.347793627e-197
1.976846075e-193
2.484073212e-189
2.682438964e-185
2.491562876e-181
1.988189801e-177
1.358133572e-173
7.892100739e-170
3.863318616e-166
1.569976129e-162
5.181258931e-159
1.341660898e-155
2.571813569e-152
3.258526124e-149
2.054133506e-146
3.081016529e-137
2.80485073e-134
1.797818134e-134
1.873745239e-133
5.756071188e-132
2.450170782e-132
1.799975194e-131
6.570285174e-131
1.94629311e-131
5.904344926e-131
2.932003266e-130
0
0
1.299506551e-08
0.0002896574529
0.01952851665
2.261183683e-241
2.971075358e-236
2.803981813e-231
1.876563507e-226
9.469296591e-222
3.767276258e-217
1.220630878e-212
3.302414788e-208
7.612756196e-204
1.520327161e-199
2.665040068e-195
4.137047683e-191
5.709398159e-187
6.99747207e-183
7.578015548e-179
7.196872463e-175
5.939951899e-171
4.217740104e-167
2.546693372e-163
1.288157273e-159
5.34595101e-156
1.777673898e-152
4.797843503e-149
1.22098473e-145
2.876538814e-140
3.661426267e-139
1.151350853e-139
1.023569665e-138
3.977360588e-137
2.026895827e-137
1.315977685e-136
6.599009711e-136
1.866189563e-136
6.047123962e-136
3.162736441e-135
0
0
1.308096784e-08
0.0002899042401
0.01952635596
5.631129554e-244
7.596743367e-239
7.341793195e-234
5.014968976e-229
2.572418031e-224
1.035386883e-219
3.376621025e-215
9.15435099e-211
2.112000323e-206
4.248550048e-202
7.652961658e-198
1.266831508e-193
1.959515534e-189
2.829872093e-185
3.751168535e-181
4.456980773e-177
4.642941393e-173
4.166224344e-169
3.175179014e-165
2.028282452e-161
1.067651795e-157
4.523373733e-154
1.512132889e-150
3.872978573e-147
2.570061838e-145
5.430396597e-144
9.079762044e-145
6.262068285e-144
2.589816503e-142
1.565693024e-142
9.598032838e-142
6.265583526e-141
1.72748758e-141
5.85998838e-141
3.30298908e-140
0
0
1.316244358e-08
0.0002901331934
0.01952412772
9.163715712e-247
1.254571364e-241
1.22762559e-236
8.464215225e-232
4.364999406e-227
1.757456486e-222
5.697098906e-218
1.523053229e-213
3.430520116e-209
6.658849649e-205
1.144194029e-200
1.79453011e-196
2.635956849e-192
3.650902029e-188
4.685524333e-184
5.403094427e-180
5.432017798e-176
4.648418391e-172
3.322078102e-168
1.948211777e-164
9.177200267e-161
3.358712625e-157
9.086883274e-154
1.712867148e-150
7.7684999e-149
8.061017064e-148
1.369670523e-148
5.642234394e-148
1.126566583e-146
7.685351391e-147
1.673485347e-146
6.615663271e-146
2.39123323e-146
6.179284225e-146
3.393150453e-145
0
0
1.324107475e-08
0.0002903501812
0.01952184234
1.105732661e-249
1.529250157e-244
1.509528669e-239
1.047659035e-234
5.42226013e-230
2.182406e-225
7.03597079e-221
1.857795248e-216
4.092912968e-212
7.663072751e-208
1.246093062e-203
1.809439921e-199
2.420769253e-195
3.05062648e-191
3.611775509e-187
3.907485281e-183
3.722124611e-179
3.019765428e-175
2.031192543e-171
1.105467155e-167
4.73477336e-164
1.530567557e-160
3.447505037e-157
4.460230574e-154
2.474836212e-152
1.877107247e-151
3.319770128e-152
7.93988805e-152
1.43726988e-150
8.669004818e-151
2.190271487e-150
6.894244625e-150
2.487097726e-150
3.867955037e-150
1.244124072e-149
0
0
1.331843699e-08
0.0002905609552
0.01951950941
1.063879046e-252
1.482624738e-247
1.473978475e-242
1.02912854e-237
5.34813674e-233
2.155442838e-228
6.932352522e-224
1.816780619e-219
3.944069241e-215
7.197686241e-211
1.121919223e-206
1.524699994e-202
1.856861635e-198
2.088523378e-194
2.208912187e-190
2.175753272e-186
1.928376702e-182
1.475044761e-178
9.380188715e-175
4.797203645e-171
1.904197866e-167
5.584467481e-164
1.105084105e-160
1.168080728e-157
7.606181684e-156
5.469558263e-155
1.150231602e-155
1.917720259e-155
2.095344364e-154
1.244601819e-154
3.190685302e-154
1.164839306e-153
4.079454692e-154
5.414138809e-154
1.570450578e-153
0
0
1.33961672e-08
0.0002907714104
0.0195171383
8.555462696e-256
1.198983637e-250
1.199069676e-245
8.420025088e-241
4.397037404e-236
1.777839584e-231
5.721984643e-227
1.495367981e-222
3.221174362e-218
5.790099799e-214
8.786923076e-210
1.141367184e-205
1.293304521e-201
1.312150748e-197
1.225816969e-193
1.069331226e-189
8.581401657e-186
6.089839784e-182
3.647141934e-178
1.763467164e-174
6.58191281e-171
1.790207303e-167
3.215991794e-164
2.995302093e-161
2.243726486e-159
1.683092822e-158
4.628187199e-159
6.844039196e-159
3.452937885e-158
2.188471818e-158
5.267554417e-158
2.369411703e-157
8.291633303e-158
1.013582802e-157
3.119881161e-157
0
0
1.347602548e-08
0.0002909878116
0.01951473864
5.94529876e-259
8.361697747e-254
8.400010859e-249
5.929082803e-244
3.112589421e-239
1.264386007e-234
4.082695142e-230
1.067995942e-225
2.295171645e-221
4.09614916e-217
6.12651959e-213
7.750013754e-209
8.388148948e-205
7.900867505e-201
6.632192851e-197
5.086795619e-193
3.600849124e-189
2.307403674e-185
1.280193953e-181
5.827941754e-178
2.058120546e-174
5.27220089e-171
8.808497227e-168
7.511240033e-165
6.512481578e-163
5.259942986e-162
1.946637674e-162
2.987546546e-162
6.300999334e-162
4.710089909e-162
9.631838927e-162
5.182854609e-161
1.957334327e-161
2.175130079e-161
7.42566969e-161
0
0
1.355999647e-08
0.0002912172056
0.01951232085
3.660906256e-262
5.156705516e-257
5.194511605e-252
3.681230656e-247
1.942196827e-242
7.932095802e-238
2.574149621e-233
6.759492932e-229
1.455161328e-224
2.593365791e-220
3.855469994e-216
4.812703051e-212
5.079052853e-208
4.574194976e-204
3.566696663e-200
2.4580455e-196
1.528917944e-192
8.631767138e-189
4.318212728e-185
1.819363645e-181
6.049482436e-178
1.46845344e-174
2.319620786e-171
1.862163835e-168
1.904294733e-166
1.656626542e-165
8.214146309e-166
1.400676163e-165
1.281645513e-165
1.230470964e-165
2.004322419e-165
1.196877229e-164
5.316109224e-165
5.18869021e-165
1.945786078e-164
0
0
1.365039245e-08
0.0002914677881
0.01950989676
2.037140485e-265
2.868629968e-260
2.891898285e-255
2.054173026e-250
1.088044142e-245
4.466946128e-241
1.4581744e-236
3.851028201e-232
8.32951276e-228
1.488631329e-223
2.212752134e-219
2.749423217e-215
2.867942473e-211
2.523216044e-207
1.885403921e-203
1.21026454e-199
6.784974399e-196
3.374778663e-192
1.489248239e-188
5.656643714e-185
1.740219161e-181
3.981642258e-178
5.986951179e-175
4.618642549e-172
5.706446617e-170
5.270038346e-169
3.440513355e-169
6.709839757e-169
2.913744604e-169
3.747613004e-169
4.850707689e-169
2.918204583e-168
1.644167355e-168
1.364052169e-168
5.431898556e-168
0
0
1.375000234e-08
0.0002917494588
0.01950748037
1.040472105e-268
1.462842129e-263
1.473191515e-258
1.046778281e-253
5.556788272e-249
2.290859238e-244
7.521338719e-240
1.999612791e-235
4.353992922e-231
7.826767494e-227
1.168127653e-222
1.453282042e-218
1.511408437e-214
1.316832955e-210
9.635324924e-207
5.946088999e-203
3.118830449e-199
1.406201241e-195
5.498533306e-192
1.849650625e-188
5.140355852e-185
1.090407001e-181
1.554504676e-178
1.166358048e-175
1.775129777e-173
1.702718157e-172
1.430685586e-172
3.239489471e-172
7.462109889e-173
1.268549768e-172
1.36879384e-172
7.562313548e-172
5.693022971e-172
3.939020446e-172
1.597278113e-171
0
0
1.386230191e-08
0.0002920746069
0.01950508897
4.937933172e-272
6.927901714e-267
6.961133935e-262
4.93866757e-257
2.621979709e-252
1.083481366e-247
3.573788744e-243
9.563057001e-239
2.098134723e-234
3.801103512e-230
5.713304048e-226
7.146771994e-222
7.45349527e-218
6.485900221e-214
4.709537984e-210
2.853742821e-206
1.444686599e-202
6.130299679e-199
2.190597599e-195
6.589088583e-192
1.634674302e-188
3.153617759e-185
4.209102287e-182
3.080736858e-179
5.782153163e-177
5.619543021e-176
5.926418677e-176
1.572922259e-175
2.19614665e-176
4.594161994e-176
4.423974982e-176
2.103148645e-175
2.159446164e-175
1.243632865e-175
4.933102652e-175
0
0
1.399174695e-08
0.0002924592675
0.01950274477
2.198607227e-275
3.078768469e-270
3.085312535e-265
2.18283966e-260
1.156743777e-255
4.780485862e-251
1.581017582e-246
4.25295595e-242
9.400052227e-238
1.717789322e-233
2.605314384e-229
3.286513153e-225
3.451298271e-221
3.016524605e-217
2.191618874e-213
1.320778979e-209
6.584937533e-206
2.708988344e-202
9.175066182e-199
2.548309262e-195
5.726566354e-192
1.000193667e-188
1.235235784e-185
8.779972162e-183
1.977984078e-180
1.90401515e-179
2.455946087e-179
7.689698248e-179
7.62351303e-180
1.736947057e-179
1.588481427e-179
6.331044771e-179
8.776048611e-179
4.253759901e-179
1.59975261e-178
0
0
1.414424746e-08
0.0002929251676
0.01950047751
9.255579383e-279
1.294281506e-273
1.294091571e-268
9.12731685e-264
4.821605066e-259
1.988619694e-254
6.578396138e-250
1.775151829e-245
3.947243872e-241
7.273954728e-237
1.114121991e-232
1.419985847e-228
1.505886516e-224
1.327293876e-220
9.701745576e-217
5.860950634e-213
2.912732337e-209
1.183797546e-205
3.906150341e-202
1.036565597e-198
2.178000777e-195
3.506905767e-192
4.016226053e-189
2.756298178e-186
7.084183785e-184
6.651533135e-183
1.022801334e-182
3.792112473e-182
3.165888574e-183
6.763111634e-183
6.152857245e-183
2.069867514e-182
3.750425227e-182
1.556299129e-182
5.445613033e-182
0
0
1.43278757e-08
0.0002935031164
0.01949832851
3.708820083e-282
5.180339526e-277
5.17179156e-272
3.638500994e-267
1.915541581e-262
7.873758433e-258
2.599341599e-253
7.017772508e-249
1.566294217e-244
2.906327205e-240
4.493787909e-236
5.791241115e-232
6.213555443e-228
5.538593122e-224
4.088795063e-220
2.489161001e-216
1.242349117e-212
5.04454913e-209
1.649719108e-205
4.28711722e-202
8.682542665e-199
1.326441496e-195
1.43351145e-192
9.501448007e-190
2.635743335e-187
2.404823641e-186
4.300623039e-186
1.889560794e-185
1.547846562e-186
2.694951008e-186
2.518471119e-186
7.323213593e-186
1.662542557e-185
6.008624316e-186
1.942744386e-185
0
0
1.455399683e-08
0.0002942392757
0.01949635741
1.423877346e-285
1.985247045e-280
1.979965357e-275
1.390850058e-270
7.302821999e-266
2.991009342e-261
9.839617591e-257
2.651334428e-252
5.922714033e-248
1.103824828e-243
1.720160593e-239
2.240404913e-235
2.43363958e-231
2.197719403e-227
1.643171819e-223
1.011855052e-219
5.097533644e-216
2.082548668e-212
6.819774293e-209
1.762165345e-205
3.51351066e-202
5.222456024e-199
5.445231022e-196
3.511486574e-193
1.008413029e-190
9.026327738e-190
1.834368211e-189
9.526433625e-189
8.552475405e-190
1.097121944e-189
1.076852761e-189
2.777950818e-189
7.578306644e-189
2.419508892e-189
7.241180066e-189
0
0
1.483910857e-08
0.0002952062684
0.01949465381
5.27336132e-289
7.325378004e-284
7.295500921e-279
5.120880694e-274
2.684969692e-269
1.096718839e-264
3.594655334e-260
9.652009657e-256
2.152301627e-251
4.016627993e-247
6.291573443e-243
8.266939217e-239
9.086162171e-235
8.318043603e-231
6.309441605e-227
3.940699118e-223
2.011196047e-219
8.306999059e-216
2.741956323e-212
7.110405002e-209
1.414185674e-205
2.080593036e-202
2.131499349e-199
1.351207077e-196
3.927023631e-194
3.524749404e-193
7.973882623e-193
4.86417245e-192
5.115293483e-193
4.568866007e-193
4.786212423e-193
1.11688542e-192
3.534810105e-192
1.007482685e-192
2.808302788e-192
0
0
1.520796717e-08
0.0002965311106
0.01949335423
1.897861816e-292
2.618443637e-287
2.599645293e-282
1.823032895e-277
9.554637556e-273
3.898073044e-268
1.274321179e-263
3.409198907e-259
7.576131038e-255
1.411716693e-250
2.21537637e-246
2.928205742e-242
3.250167059e-238
3.014175351e-234
2.320766994e-230
1.472574287e-226
7.633719076e-223
3.199053471e-219
1.069266231e-215
2.799824989e-212
5.600802349e-209
8.245661977e-206
8.406440788e-203
5.289705197e-200
1.543152252e-197
1.432829222e-196
3.547677615e-196
2.516950091e-195
3.210594848e-196
1.952747027e-196
2.209232801e-196
4.709719664e-196
1.683870888e-195