/*--------------------------------*- C++ -*----------------------------------*\
| =========                 |                                                 |
| \\      /  F ield         | OpenFOAM: The Open Source CFD Toolbox           |
|  \\    /   O peration     | Version:  v1912                                 |
|   \\  /    A nd           | Website:  www.openfoam.com                      |
|    \\/     M anipulation  |                                                 |
\*---------------------------------------------------------------------------*/
FoamFile
{
    version     2.0;
    format      ascii;
    class       volScalarField;
    location    "0.1";
    object      iDmdt.gasAndLiquid;
}
// * * * * * * * * * * * * * * * * * * * * * * * * * * * * * * * * * * * * * //

dimensions      [1 -3 -1 0 0 0 0];


internalField   nonuniform List<scalar> 
4800
(
2.35333814e-242
2.288796837e-237
1.5983267e-232
7.927495003e-228
2.970060889e-223
8.783267156e-219
2.114494921e-214
4.23776037e-210
7.189781165e-206
1.045932212e-201
1.317662349e-197
1.448627441e-193
1.398046768e-189
1.189589488e-185
8.951233572e-182
5.966245717e-178
3.523489371e-174
1.84136636e-170
8.488067363e-167
3.43135071e-163
1.20496808e-159
3.65221211e-156
9.501141235e-153
1.951437893e-149
2.156020534e-149
2.139373179e-149
1.576263746e-125
2.9031196e-122
1.154039966e-121
0
1.652473798e-85
8.557949273e-81
2.068251426e-76
5.890203675e-77
2.677884047e-64
0
1.966786466e-53
1.139121797e-72
4.383805446e-35
0.1700115959
1.617857411e-241
1.474407945e-236
9.669908946e-232
4.507038518e-227
1.587215187e-222
4.412550171e-218
9.986205657e-214
1.881233644e-209
2.999460975e-205
4.099371232e-201
4.849802289e-197
5.004450684e-193
4.530309713e-189
3.613213356e-185
2.546429525e-181
1.588677757e-177
8.788329625e-174
4.31662676e-170
1.879750034e-166
7.234466007e-163
2.449153202e-159
7.27616089e-156
1.949490001e-152
4.47403842e-149
2.941393547e-146
1.962577227e-144
0
9.361503923e-115
3.370929775e-114
0
0
1.183516034e-74
1.845990629e-73
6.665723047e-77
1.520014327e-58
2.325691714e-78
1.649404529e-47
0
-0.0001810203597
0.2610346223
9.10436067e-240
9.461546025e-235
7.075720134e-230
3.761535551e-225
1.511310912e-220
4.7947943e-216
1.23871585e-211
2.664743845e-207
4.853811056e-203
7.582597826e-199
1.026091071e-194
1.212180334e-190
1.257748217e-186
1.151545632e-182
9.335220953e-179
6.71699534e-175
4.29656965e-171
2.44573231e-167
1.240078234e-163
5.611606131e-160
2.277321414e-156
8.371643604e-153
2.923049481e-149
6.872262027e-146
1.366849962e-140
5.767536796e-137
2.336237068e-158
9.287896921e-108
4.212979289e-107
2.818803019e-105
3.353129098e-104
3.969896441e-72
0
2.696455805e-59
4.513262347e-56
0
1.58602709e-43
0
-0.000376179118
0.2617621372
1.526507723e-238
1.505826199e-233
1.06706029e-228
5.36651117e-224
2.036488315e-219
6.09191385e-215
1.481162548e-210
2.992512834e-206
5.107344271e-202
7.455667643e-198
9.39787117e-194
1.030231434e-189
9.873593908e-186
8.301936795e-182
6.135686026e-178
3.986571222e-174
2.273072219e-170
1.132575431e-166
4.894047953e-163
1.810961873e-159
5.617320319e-156
1.405710228e-152
2.624910531e-149
2.623910606e-149
1.133885998e-133
3.060668374e-130
2.104945714e-151
1.88055122e-104
2.053826113e-98
1.559916233e-98
3.151344486e-112
9.598505098e-73
0
2.249668245e-54
4.445781056e-56
1.21983669e-45
7.133382676e-42
0
-0.0004610467237
0.2682353399
5.849720149e-239
6.022154181e-234
4.45358904e-229
2.337644032e-224
9.258973895e-220
2.891121392e-215
7.338249428e-211
1.547954861e-206
2.758777787e-202
4.206183191e-198
5.538733412e-194
6.344868207e-190
6.356950129e-186
5.591517157e-182
4.32883532e-178
2.956455132e-174
1.793632929e-170
9.833422156e-167
4.80943123e-163
2.039988943e-159
7.195557778e-156
1.970329982e-152
3.625582096e-149
9.501557185e-148
2.064069234e-130
3.138219488e-127
3.727697508e-145
2.673287411e-123
1.25646749e-94
5.590340282e-92
0
2.099043894e-74
1.35157407e-77
3.031956156e-52
4.40613482e-56
1.080553488e-43
3.642633277e-42
0
-0.0005266630295
0.2770259924
3.721577134e-236
4.230404783e-231
3.448928661e-226
1.992474349e-221
8.671537265e-217
2.970085839e-212
8.254182974e-208
1.902699671e-203
3.697679202e-199
6.132801252e-195
8.760728226e-191
1.085152137e-186
1.170879474e-182
1.103447151e-178
9.088212098e-175
6.530863621e-171
4.076274953e-167
2.191160813e-163
9.998141329e-160
3.778182732e-156
1.130909426e-152
2.446306119e-149
2.946473718e-146
2.237731225e-134
1.074944316e-130
5.115486093e-128
3.723931151e-125
3.189790483e-129
3.12874141e-109
2.56730836e-86
0
2.017749847e-77
1.014941014e-96
2.439715573e-52
6.393432356e-50
4.404631269e-44
5.481345167e-44
0
-0.0006914178128
0.2867414912
1.029944849e-237
1.151198042e-232
9.301549449e-228
5.364551057e-223
2.346652505e-218
8.129940082e-214
2.299127872e-209
5.424151742e-205
1.084957568e-200
1.86259555e-196
2.770139828e-192
3.594439592e-188
4.090360936e-184
4.096622779e-180
3.617989394e-176
2.818473844e-172
1.933730744e-168
1.164109314e-164
6.10584273e-161
2.759121414e-157
1.05652479e-153
3.363459595e-150
9.200386693e-147
3.680690339e-146
1.731630152e-128
2.211579629e-124
8.620107076e-123
2.904864424e-139
0
1.007378201e-83
1.996377623e-79
2.434116485e-76
0
5.846607801e-53
1.775051815e-49
2.623012455e-45
5.108852885e-48
2.548183152e-10
-0.001021953735
0.294202938
1.105059481e-237
1.043271501e-232
7.083927023e-228
3.417033975e-223
1.244519412e-218
3.574420681e-214
8.345113294e-210
1.618668923e-205
2.650839585e-201
3.70986711e-197
4.477379027e-193
4.69119407e-189
4.28710432e-185
3.426889366e-181
2.39858314e-177
1.468896951e-173
7.849004714e-170
3.642403699e-166
1.457791779e-162
4.992496982e-159
1.463448689e-155
3.872634699e-152
1.242381735e-148
2.478796824e-146
9.720600389e-126
1.993978121e-121
9.354059752e-120
4.590140163e-119
0
3.95655642e-110
5.703153504e-77
5.852060165e-74
0
2.144348763e-54
1.561181341e-50
1.363517911e-47
5.1347464e-48
2.485159327e-09
-0.001258081626
0.2990288257
2.35025753e-236
1.977465801e-231
1.19701448e-226
5.147824293e-222
1.67134424e-217
4.277630607e-213
8.894158135e-209
1.53510693e-204
2.234537755e-200
2.775703414e-196
2.968191988e-192
2.749692505e-188
2.216079063e-184
1.557393435e-180
9.547566574e-177
5.09714732e-173
2.359804776e-169
9.403864917e-166
3.187216296e-162
9.015159455e-159
2.063882129e-155
3.626588132e-152
4.402161431e-149
2.766895595e-146
8.44898259e-125
1.787647236e-121
1.738329721e-120
1.667126051e-115
0
6.766135605e-81
2.612126285e-77
2.581490019e-77
1.799603679e-62
6.956704715e-57
5.612266378e-53
6.694301679e-49
4.967555825e-45
4.683116131e-09
-0.001420980132
0.3022648726
1.841600575e-236
1.537973311e-231
9.240373684e-227
3.944022312e-222
1.270807579e-217
3.227732489e-213
6.660158109e-209
1.140901381e-204
1.648658446e-200
2.033937523e-196
2.161631041e-192
1.992311218e-188
1.599951805e-184
1.122834662e-180
6.89564298e-177
3.706252652e-173
1.744974971e-169
7.298686819e-166
2.909389665e-162
1.068702849e-158
2.912783208e-155
4.523239336e-152
5.191684945e-149
1.35400701e-146
2.598588436e-125
3.500229084e-122
3.393595091e-122
2.148670108e-112
5.225534301e-85
2.051098262e-81
3.614371294e-90
6.196624119e-68
6.765830512e-63
1.246254358e-60
0
7.630653272e-50
9.50019987e-46
6.486620709e-09
-0.001539614497
0.3045105133
7.068469175e-233
6.046283117e-228
3.717157038e-223
1.621479731e-218
5.33158898e-214
1.379424975e-209
2.893119165e-205
5.024265484e-201
7.336997242e-197
9.111913823e-193
9.702500107e-189
8.907608697e-185
7.074329756e-181
4.866314408e-177
2.897918374e-173
1.493062457e-169
6.710638694e-166
2.810748695e-162
1.456254649e-158
5.799410392e-155
1.115936342e-151
4.930393916e-149
2.736349153e-146
9.895579882e-131
7.226086781e-127
2.290612552e-123
1.697599352e-118
0
1.150533009e-85
7.332450418e-83
3.591364672e-88
3.283704233e-68
1.823274148e-64
3.059107228e-65
0
2.055012562e-51
1.833576027e-47
7.923083663e-09
-0.001628615342
0.3061094183
2.297396392e-229
2.21098495e-224
1.545568537e-219
7.751905434e-215
2.964017109e-210
9.015910971e-206
2.245668749e-201
4.671831198e-197
8.22814121e-193
1.237813932e-188
1.598977648e-184
1.777522482e-180
1.699231404e-176
1.391463273e-172
9.686037169e-169
5.65891457e-165
2.718869553e-161
1.039500846e-157
2.989637621e-154
5.804975387e-151
5.809358096e-148
2.827678586e-146
4.564808266e-136
5.394922742e-132
2.043929372e-128
2.950186808e-123
0
4.62660373e-91
2.196584018e-87
6.954462796e-97
8.654035083e-77
1.013297209e-69
1.951461714e-67
9.431077881e-68
1.263369658e-74
5.630067718e-54
2.291877454e-50
9.039708153e-09
-0.001696937087
0.307270082
7.258669616e-230
6.742878494e-225
4.498313599e-220
2.126996276e-215
7.57061939e-211
2.116625726e-206
4.786906045e-202
8.940366508e-198
1.399504894e-193
1.855561427e-189
2.098731479e-185
2.03361543e-181
1.690800204e-177
1.204763677e-173
7.324846363e-170
3.768488583e-166
1.618288655e-162
5.676205093e-159
1.571222142e-155
3.242182721e-152
4.475772802e-149
2.765490326e-146
1.678555474e-137
1.868862604e-134
0
2.813796397e-124
4.216106061e-97
3.478861799e-92
2.173481251e-90
2.852585486e-98
1.162563044e-76
9.014766083e-73
5.361411164e-85
1.712302899e-65
4.92917891e-62
8.855340876e-58
1.389860169e-54
9.890927317e-09
-0.001750506068
0.3081241232
4.615930068e-231
5.245533781e-226
4.332924089e-221
2.566523634e-216
1.15744936e-211
4.146891976e-207
1.215701626e-202
2.978370543e-198
6.192753736e-194
1.105320949e-189
1.707618784e-185
2.296620372e-181
2.698564094e-177
2.77474792e-173
2.4963044e-169
1.961623395e-165
1.342556694e-161
7.979864963e-158
4.122516986e-154
1.883406782e-150
8.079873958e-147
4.856153366e-143
2.119732682e-139
0
1.049911633e-138
4.088010713e-119
1.0742961e-97
1.515961151e-94
1.342133202e-94
1.139666942e-83
1.977252514e-78
1.61773309e-77
6.282095464e-85
2.516659908e-65
1.433686872e-62
3.78145657e-76
6.39295174e-56
1.052820549e-08
-0.001793320553
0.3087575962
7.053225683e-233
8.905333952e-228
8.1471051e-223
5.333753355e-218
2.656712647e-213
1.052067598e-208
3.416402782e-204
9.303136094e-200
2.159494574e-195
4.32477711e-191
7.537716772e-187
1.150503531e-182
1.545227051e-178
1.834999939e-174
1.939837178e-170
1.845486466e-166
1.603884066e-162
1.288087448e-158
9.473997058e-155
6.101553663e-151
3.100443214e-147
9.110763131e-144
0
0
0
4.208920316e-103
1.64213152e-99
8.490617378e-113
3.939713913e-91
2.389143272e-85
2.33150687e-82
0
3.966290037e-72
2.979150977e-66
4.353063005e-64
0
0
1.099490526e-08
-0.001828135179
0.3092285207
1.851218675e-235
2.376840058e-230
2.234493815e-225
1.523338616e-220
8.022494587e-216
3.412270511e-211
1.207394019e-206
3.622778771e-202
9.327171e-198
2.074490428e-193
3.999938956e-189
6.698022511e-185
9.756410241e-181
1.240783675e-176
1.391004482e-172
1.403147345e-168
1.316360609e-164
1.185796071e-160
1.023186725e-156
7.985872801e-153
5.157105135e-149
2.064271974e-145
8.786704105e-142
2.162154833e-137
8.71207963e-110
1.92348004e-104
9.38310547e-103
7.34678254e-111
1.792841821e-91
3.305260633e-88
1.360622603e-87
6.164818922e-94
6.183433873e-73
2.090329492e-68
7.070674727e-67
0
0
1.132541508e-08
-0.001856894595
0.3095772586
4.522871477e-236
4.044969002e-231
2.608648238e-226
1.197829652e-221
4.162924931e-217
1.144644477e-212
2.571684534e-208
4.842234332e-204
7.810313932e-200
1.101993594e-195
1.390517417e-191
1.61076619e-187
1.775072327e-183
1.957140271e-179
2.275785663e-175
2.821936132e-171
3.553483954e-167
4.240194583e-163
4.461342386e-159
3.927541165e-155
2.917095285e-151
1.490906823e-147
0
8.235263829e-131
1.070457828e-110
3.132061872e-107
4.613235187e-114
2.236687769e-98
3.31834942e-93
5.598149475e-92
8.062481044e-100
1.43750224e-80
6.58545151e-75
4.912929525e-72
3.685262482e-71
0
0
1.154695874e-08
-0.001880991329
0.3098324587
3.228688494e-232
2.801579176e-227
1.746459815e-222
7.716694637e-218
2.566301956e-213
6.705709765e-209
1.419676279e-204
2.494912447e-200
3.722521563e-196
4.839254776e-192
5.668678504e-188
6.228238484e-184
6.627616377e-180
6.846594333e-176
6.65603679e-172
5.818309743e-168
4.378234204e-164
2.723359075e-160
1.334495162e-156
4.746988443e-153
9.738047199e-150
0
0
1.65063853e-118
3.671411193e-113
1.317870194e-111
6.248833273e-114
4.996621197e-100
1.051633707e-96
1.237688901e-96
7.191894011e-100
3.728573448e-81
4.010846243e-78
7.167128879e-77
5.247347653e-76
0
0
1.168097479e-08
-0.001901446967
0.310014879
4.663591598e-229
4.245624081e-224
2.768355207e-219
1.275139628e-214
4.40348478e-210
1.188890067e-205
2.58245125e-201
4.603927933e-197
6.831316519e-193
8.51801162e-189
8.980715051e-185
8.031873864e-181
6.095945186e-177
3.916699323e-173
2.118255208e-169
9.549769102e-166
3.53501051e-162
1.049817478e-158
2.411429467e-155
4.026782013e-152
4.266955416e-149
2.185274014e-147
0
5.739141167e-120
2.650940804e-117
2.06726581e-117
7.469138163e-109
1.943721561e-103
9.225973374e-102
6.986425709e-102
1.248470536e-86
5.049155696e-83
1.126486166e-82
9.72790676e-82
7.147296247e-81
0
0
1.174437836e-08
-0.001919023083
0.3101401853
5.465829649e-229
5.007138668e-224
3.283255358e-219
1.519737811e-214
5.269901571e-210
1.427526264e-205
3.108325686e-201
5.549637747e-197
8.238461499e-193
1.026652178e-188
1.080565002e-184
9.635982567e-181
7.283058393e-177
4.653771146e-173
2.499444829e-169
1.117191496e-165
4.092132822e-162
1.199639666e-158
2.712736071e-155
4.451735084e-152
4.7560943e-149
2.267451817e-146
8.772226475e-127
5.316686e-123
2.323632843e-130
2.174855778e-115
2.618631454e-110
1.971811729e-108
0
1.068503084e-92
5.78796312e-88
1.845885081e-86
2.196035188e-87
1.256562872e-86
9.352424167e-86
0
0
1.175046762e-08
-0.001934295543
0.3102193325
2.760435783e-226
2.772729039e-221
1.988901427e-216
1.004545703e-211
3.790512799e-207
1.113944228e-202
2.622690854e-198
5.044574994e-194
8.034275347e-190
1.069095386e-185
1.194990993e-181
1.124417463e-177
8.897567565e-174
5.894757809e-170
3.241694523e-166
1.458936787e-162
5.254921515e-159
1.461903568e-155
2.958356344e-152
3.883998131e-149
2.487899049e-146
4.298951301e-133
1.697092706e-128
9.219304919e-128
2.839228477e-130
2.209178849e-116
4.12081331e-113
1.985369552e-113
0
7.275985974e-94
9.057737353e-91
2.426170891e-91
3.863664519e-92
1.572971595e-91
1.186032429e-90
0
0
1.170976007e-08
-0.001947706655
0.3102615651
3.472024558e-227
3.783349116e-222
2.947261704e-217
1.618482957e-212
6.648094749e-208
2.129557288e-203
5.472813935e-199
1.150776509e-194
2.006996641e-190
2.929953338e-186
3.600498398e-182
3.733460317e-178
3.264581688e-174
2.397593148e-170
1.467112414e-166
7.379952593e-163
2.987126527e-159
9.399790838e-156
2.168597265e-152
3.275724439e-149
2.43810525e-146
7.170067861e-135
5.278700138e-132
1.735208319e-141
6.667661478e-125
4.608899562e-119
1.724854466e-117
1.360284861e-117
5.013718825e-102
1.010946695e-96
3.073373731e-95
3.032644705e-96
6.130955301e-97
1.928613371e-96
1.441368924e-95
0
0
1.163065833e-08
-0.001959603315
0.3102737172
2.603100331e-229
3.013722868e-224
2.520837546e-219
1.50409417e-214
6.80710023e-210
2.443922772e-205
7.192866389e-201
1.780068239e-196
3.781052084e-192
7.009597165e-188
1.148810284e-183
1.677950127e-179
2.188743888e-175
2.537538817e-171
2.583725457e-167
2.266921333e-163
1.669229536e-159
9.966085776e-156
4.685940256e-152
2.024818275e-148
1.313322201e-144
1.270963038e-138
3.623216848e-137
1.919215359e-141
6.936190294e-127
7.774367956e-124
5.838109575e-130
1.73108684e-109
7.880174161e-104
1.578268207e-101
2.656487426e-100
3.604906887e-101
8.838107347e-102
2.336412145e-101
1.669213743e-100
0
0
1.151989664e-08
-0.001970261404
0.3102611087
9.205321721e-232
9.993864061e-227
7.906786224e-222
4.514346001e-217
1.989800289e-212
7.15498743e-208
2.199824551e-203
6.013002504e-199
1.499043811e-194
3.433005956e-190
7.161614497e-186
1.340193777e-181
2.216084364e-177
3.196708023e-173
3.976486976e-169
4.214259059e-165
3.746454275e-161
2.730628954e-157
1.581603655e-153
7.015824377e-150
2.229439788e-146
4.877229576e-144
3.443402572e-144
1.278730943e-134
1.967520298e-130
3.930477651e-129
1.804897568e-130
2.172771106e-110
3.279578258e-107
8.195638164e-107
1.934024066e-105
4.107536122e-106
1.164819891e-106
2.808834732e-106
1.84688341e-105
0
0
1.138291926e-08
-0.001979903971
0.3102280419
1.320007412e-231
1.239969277e-226
8.335898768e-222
3.96066973e-217
1.414717969e-212
3.975507229e-208
9.093069886e-204
1.740415474e-199
2.856118277e-195
4.10701243e-191
5.26825645e-187
6.096110299e-183
6.376505132e-179
5.987429848e-175
4.980199846e-171
3.61029269e-167
2.243891007e-163
1.178115204e-159
5.158895286e-156
1.87575036e-152
5.821298965e-149
2.17567132e-146
1.988280991e-141
4.211263557e-136
1.969992619e-134
2.244598621e-138
5.335537096e-118
6.211334514e-113
7.035623341e-112
4.54822827e-112
1.198131438e-110
4.552096496e-111
1.418368856e-111
3.347352046e-111
1.981672232e-110
0
0
1.122417088e-08
-0.001988713539
0.3101779788
6.672203275e-233
6.528029337e-228
4.568648044e-223
2.257373738e-218
8.368490317e-214
2.432651743e-209
5.726918733e-205
1.120457232e-200
1.864710258e-196
2.70226891e-192
3.494539466e-188
4.128598656e-184
4.530987291e-180
4.63413604e-176
4.36558765e-172
3.705998818e-168
2.762292961e-164
1.757789995e-160
9.238663507e-157
3.835670241e-153
1.166855994e-149
2.086442518e-146
2.290003373e-142
3.095067944e-139
3.448089658e-139
2.72024584e-139
5.48550415e-120
1.523564248e-117
1.002948444e-116
3.301565819e-117
6.736704309e-116
4.961483426e-116
1.612662893e-116
3.925809276e-116
2.103340311e-115
0
0
1.104730525e-08
-0.00199684069
0.3101137503
6.344967495e-235
6.290311568e-230
4.454804191e-225
2.223160427e-220
8.300365876e-216
2.41912832e-211
5.668775201e-207
1.091146119e-202
1.753709259e-198
2.385982813e-194
2.785020603e-190
2.83504825e-186
2.579810977e-182
2.183332452e-178
1.813623916e-174
1.543579946e-170
1.338902787e-166
1.122958287e-162
8.511554595e-159
5.483632369e-155
2.876520294e-151
1.177274005e-147
1.370174149e-144
1.842906576e-143
1.765600122e-143
1.407329504e-128
6.197154047e-124
7.111661876e-123
9.657792061e-122
2.81739103e-122
3.793076542e-121
5.339632853e-121
1.728200522e-121
4.484755723e-121
2.242522857e-120
0
0
1.085534945e-08
-0.002004410098
0.3100377048
3.046234179e-237
3.134444303e-232
2.312608808e-227
1.20717756e-222
4.734119232e-218
1.455347075e-213
3.611522297e-209
7.386300891e-205
1.263841592e-200
1.829108259e-196
2.256984829e-192
2.388237279e-188
2.176660552e-184
1.715593216e-180
1.175713122e-176
7.073271848e-173
3.798584298e-169
1.862921607e-165
8.47275639e-162
3.49945753e-158
1.21958823e-154
3.218341452e-151
2.243736495e-148
1.867623312e-146
6.758847919e-136
7.67490438e-131
4.1819218e-129
3.132756066e-128
7.435838934e-127
2.506637466e-127
2.334633048e-126
5.641486728e-126
1.759305343e-126
4.937689422e-126
2.408089906e-125
0
0
1.065083205e-08
-0.00201152658
0.3099518195
4.044687693e-239
4.97353436e-234
4.386747494e-229
2.736390713e-224
1.281307147e-219
4.698389278e-215
1.389343427e-210
3.383114341e-206
6.887702633e-202
1.185505422e-197
1.738814381e-193
2.184967439e-189
2.359449248e-185
2.191557369e-181
1.748795415e-177
1.194603556e-173
6.941831648e-170
3.398146214e-166
1.380939471e-162
4.557397615e-159
1.180115049e-155
2.262148017e-152
2.866174708e-149
1.806799678e-146
2.710037322e-137
2.467123715e-134
1.581346067e-134
1.648131429e-133
5.062997791e-132
2.155154717e-132
1.583249963e-131
5.779209228e-131
1.711962377e-131
5.193498787e-131
2.579024525e-130
0
0
1.043589056e-08
-0.002018280667
0.3098577928
1.938886463e-241
2.547594256e-236
2.404317696e-231
1.609089038e-226
8.119602458e-222
3.230314066e-217
1.046651117e-212
2.831714972e-208
6.527700315e-204
1.303634156e-199
2.285192818e-195
3.547399346e-191
4.895649882e-187
6.000144109e-183
6.497951769e-179
6.17113837e-175
5.093366267e-171
3.616614865e-167
2.183733163e-163
1.104567546e-159
4.584044187e-156
1.524320749e-152
4.11406159e-149
1.046972777e-145
2.46658387e-140
3.139615663e-139
9.872667638e-140
8.776978283e-139
3.410543164e-137
1.73804581e-137
1.12844366e-136
5.658639687e-136
1.600263475e-136
5.185463847e-136
2.712095926e-135
0
0
1.021235761e-08
-0.002024752005
0.3097571196
4.703924545e-244
6.345887523e-239
6.13291868e-234
4.189223351e-229
2.148855177e-224
8.649054074e-220
2.820646836e-215
7.647058889e-211
1.764255172e-206
3.549022453e-202
6.392904188e-198
1.058249852e-193
1.636887401e-189
2.363946755e-185
3.133561903e-181
3.723173678e-177
3.878525219e-173
3.480302169e-169
2.652426801e-165
1.694355614e-161
8.918805464e-158
3.778683289e-154
1.263190862e-150
3.235378769e-147
2.146963715e-145
4.536426248e-144
7.58504332e-145
5.231218189e-144
2.163493966e-142
1.307962248e-142
8.018129422e-142
5.234255999e-141
1.443150079e-141
4.895498781e-141
2.759378179e-140
0
0
9.981825691e-09
-0.002031013789
0.3096511516
7.45212155e-247
1.020243417e-241
9.983310688e-237
6.883283006e-232
3.549715537e-227
1.429204642e-222
4.633019957e-218
1.238585928e-213
2.789791567e-209
5.415166265e-205
9.304930707e-201
1.459369238e-196
2.143649414e-192
2.969044768e-188
3.810447084e-184
4.39401465e-180
4.417549302e-176
3.780304216e-172
2.701672623e-168
1.584384092e-164
7.463386914e-161
2.731493064e-157
7.389988696e-154
1.393009628e-150
6.317850202e-149
6.55577167e-148
1.113914993e-148
4.588694726e-148
9.162147126e-147
6.250384177e-147
1.361030344e-146
5.38049925e-146
1.944799725e-146
5.025686174e-146
2.759718566e-145
0
0
9.745697929e-09
-0.002037137081
0.3095411491
8.747426895e-250
1.209786785e-244
1.194185999e-239
8.288022446e-235
4.28955101e-230
1.7265042e-225
5.566174686e-221
1.469709407e-216
3.237926989e-212
6.062315257e-208
9.857962712e-204
1.431469552e-199
1.91510538e-195
2.413402466e-191
2.857347138e-187
3.091300387e-183
2.944668807e-179
2.389024114e-175
1.606942157e-171
8.745747411e-168
3.745866181e-164
1.210898228e-160
2.727484072e-157
3.528717201e-154
1.957980585e-152
1.485092421e-151
2.62648581e-152
6.281801667e-152
1.137132877e-150
6.85875691e-151
1.732916812e-150
5.454694325e-150
1.967800058e-150
3.060373305e-150
9.843776153e-150
0
0
9.505230297e-09
-0.002043193106
0.3094283297
8.180962157e-253
1.140101471e-247
1.133453699e-242
7.913756709e-238
4.112597441e-233
1.657490106e-228
5.33084348e-224
1.397071985e-219
3.032926899e-215
5.534923079e-211
8.627434093e-207
1.172481523e-202
1.427916514e-198
1.606069733e-194
1.698655987e-190
1.673164527e-186
1.482938041e-182
1.134327828e-178
7.213520948e-175
3.689150348e-171
1.464376731e-167
4.294624374e-164
8.498485904e-161
8.983011673e-158
5.849501546e-156
4.206370949e-155
8.845939693e-156
1.474848655e-155
1.611466786e-154
9.571948755e-155
2.45390757e-154
8.958697616e-154
3.137516422e-154
4.164077071e-154
1.20786732e-153
0
0
9.261577474e-09
-0.002049255789
0.3093139208
6.389660421e-256
8.954630936e-251
8.95528256e-246
6.288524775e-241
3.283947996e-236
1.327790504e-231
4.273509584e-227
1.116830505e-222
2.405773562e-218
4.324422146e-214
6.562669286e-210
8.52453956e-206
9.659360057e-202
9.800166344e-198
9.155407321e-194
7.986688637e-190
6.40936981e-186
4.548474161e-182
2.724051994e-178
1.317143708e-174
4.916104046e-171
1.337135922e-167
2.402097556e-164
2.237277734e-161
1.675918757e-159
1.257172808e-158
3.457020287e-159
5.112199205e-159
2.579220781e-158
1.634727764e-158
3.934762349e-158
1.769926818e-157
6.193848424e-158
7.571567387e-158
2.330615964e-157
0
0
9.01582447e-09
-0.002055405232
0.3091992216
4.30872352e-259
6.059957801e-254
6.087731215e-249
4.296984149e-244
2.255791129e-239
9.16342334e-235
2.958872064e-230
7.740165301e-226
1.663402501e-221
2.968654957e-217
4.440171529e-213
5.616820839e-209
6.079342411e-205
5.726216986e-201
4.80676532e-197
3.686744057e-193
2.609796934e-189
1.672355775e-185
9.278639209e-182
4.224033752e-178
1.491718225e-174
3.821306598e-171
6.384486005e-168
5.444274819e-165
4.720406843e-163
3.812576715e-162
1.411001724e-162
2.165519717e-162
4.567327312e-162
3.414187764e-162
6.981891932e-162
3.75698048e-161
1.418865792e-161
1.576769446e-161
5.383010655e-161
0
0
8.769034738e-09
-0.00206173272
0.3090856747
2.572166317e-262
3.623122346e-257
3.64968946e-252
2.586455067e-247
1.364602166e-242
5.5731655e-238
1.808627415e-233
4.749315794e-229
1.022421244e-224
1.822151794e-220
2.708946202e-216
3.381540836e-212
3.568708393e-208
3.214000712e-204
2.5061131e-200
1.727141135e-196
1.07430031e-192
6.065199866e-189
3.03426463e-185
1.278419022e-181
4.250856468e-178
1.031865399e-174
1.629989448e-171
1.308551224e-168
1.338173178e-166
1.164148078e-165
5.772337477e-166
9.843122096e-166
9.006770817e-166
8.647266814e-166
1.40858006e-165
8.411438747e-165
3.73612721e-165
3.646639007e-165
1.367531485e-164
0
0
8.52228449e-09
-0.002068347099
0.3089749526
1.386231512e-265
1.952043924e-260
1.967880057e-255
1.3978271e-250
7.403958172e-246
3.03969134e-241
9.92269769e-237
2.6205884e-232
5.668181722e-228
1.013009855e-223
1.505781293e-219
1.87099919e-215
1.951666493e-211
1.717089827e-207
1.283059066e-203
8.236192536e-200
4.617411266e-196
2.29667807e-192
1.01350664e-188
3.849667997e-185
1.184332491e-181
2.709800627e-178
4.074614681e-175
3.143410022e-172
3.88381551e-170
3.586847738e-169
2.34168752e-169
4.566932315e-169
1.983219685e-169
2.550828202e-169
3.301709604e-169
1.986355533e-168
1.119167386e-168
9.2851291e-169
3.697569786e-168
0
0
8.27670949e-09
-0.002075382118
0.308869067
6.84998899e-269
9.630685528e-264
9.698834178e-259
6.891534978e-254
3.658358225e-249
1.508211598e-244
4.951773163e-240
1.316477845e-235
2.866537979e-231
5.152939848e-227
7.690700845e-223
9.568167551e-219
9.950944321e-215
8.669958541e-211
6.34390779e-207
3.914951586e-203
2.05348483e-199
9.258749492e-196
3.620404487e-192
1.217883073e-188
3.384660354e-185
7.179872899e-182
1.02359164e-178
7.680214074e-176
1.168903317e-173
1.121239795e-172
9.421225604e-173
2.133278033e-172
4.914058835e-173
8.353995645e-173
9.014320096e-173
4.980327228e-172
3.749338557e-172
2.594230796e-172
1.051984207e-171
0
0
8.033563835e-09
-0.00208300689
0.3087705254
3.141652165e-272
4.407729843e-267
4.428879376e-262
3.142134042e-257
1.668189895e-252
6.893491781e-248
2.273781028e-243
6.084414681e-239
1.334928681e-234
2.418451425e-230
3.635116756e-226
4.547205868e-222
4.742405651e-218
4.12679941e-214
2.996581519e-210
1.815798747e-206
9.192462969e-203
3.900728609e-199
1.393903698e-195
4.192778618e-192
1.040194761e-188
2.006779066e-185
2.678474149e-182
1.96047039e-179
3.679622628e-177
3.576209304e-176
3.771574978e-176
1.001028384e-175
1.39768491e-176
2.92390488e-176
2.815650589e-176
1.338582626e-175
1.374443641e-175
7.915641814e-176
3.139951671e-175
0
0
7.794292018e-09
-0.002091443405
0.3086825733
1.350168553e-275
1.890678938e-270
1.894700478e-265
1.340492529e-260
7.103643068e-256
2.935741573e-251
9.709227301e-247
2.611809014e-242
5.77276338e-238
1.054937436e-233
1.600002637e-229
2.018366571e-225
2.119588987e-221
1.852596911e-217
1.345997815e-213
8.111761754e-210
4.044294194e-206
1.663813721e-202
5.635256641e-199
1.565178552e-195
3.517335281e-192
6.14343949e-189
7.587274292e-186
5.393091636e-183
1.215000643e-180
1.16958943e-179
1.508660279e-179
4.72380266e-179
4.68325186e-180
1.06706041e-179
9.758762552e-180
3.889538533e-179
5.391777111e-179
2.613461102e-179
9.828910923e-179
0
0
7.560652033e-09
-0.002100998412
0.3086095803
5.479068487e-279
7.661826908e-274
7.660714796e-269
5.403170559e-264
2.854294341e-259
1.177228762e-254
3.894319544e-250
1.05087222e-245
2.336746899e-241
4.30617807e-237
6.595660691e-233
8.406479543e-229
8.915123843e-225
7.857921448e-221
5.743760605e-217
3.469931406e-213
1.724488039e-209
7.008809948e-206
2.312722709e-202
6.137331253e-199
1.289583487e-195
2.076464717e-192
2.378088923e-189
1.632097078e-186
4.194882732e-184
3.938785017e-183
6.056791077e-183
2.245657617e-182
1.874861247e-183
4.00526518e-183
3.643953875e-183
1.225885093e-182
2.221257353e-182
9.217697271e-183
3.225420671e-182
0
0
7.334879538e-09
-0.002112123168
0.3085576968
2.113459437e-282
2.952003679e-277
2.947137882e-272
2.073400966e-267
1.091576425e-262
4.486904834e-258
1.481258419e-253
3.999170309e-249
8.925809922e-245
1.656238474e-240
2.560917118e-236
3.30034765e-232
3.541063751e-228
3.156451212e-224
2.330244355e-220
1.418620329e-216
7.080508084e-213
2.875088309e-209
9.402589592e-206
2.443497873e-202
4.948837645e-199
7.560569504e-196
8.171056181e-193
5.4159901e-190
1.502459157e-187
1.370864783e-186
2.451629632e-186
1.077200961e-185
8.824220038e-187
1.536426506e-186
1.435854653e-186
4.175299374e-186
9.479182273e-186
3.425982269e-186
1.10773711e-185
0
0
7.119942215e-09
-0.002125524629
0.3085360195
7.798836665e-286
1.08735749e-280
1.084466784e-275
7.617990572e-271
3.999933788e-266
1.638257943e-261
5.389465874e-257
1.452230201e-252
3.244111494e-248
6.046160536e-244
9.422226636e-240
1.227203782e-235
1.333068692e-231
1.203857812e-227
9.001049182e-224
5.542889995e-220
2.792456866e-216
1.140855135e-212
3.736069381e-209
9.653876832e-206
1.924895406e-202
2.861224776e-199
2.983357949e-196
1.923943872e-193
5.525260002e-191
4.945823797e-190
1.005142491e-189
5.22017843e-189
4.686632692e-190
6.012262813e-190
5.901377662e-190
1.52242326e-189
4.153329871e-189
1.326064082e-189
3.968792787e-189
0
0
6.919937403e-09
-0.002142359724
0.3085586658
2.771620484e-289
3.850142677e-284
3.834448386e-279
2.691497637e-274
1.411207616e-269
5.764338613e-265
1.889360083e-260
5.073165283e-256
1.131276682e-251
2.111214194e-247
3.307009706e-243
4.345373447e-239
4.776057674e-235
4.372377303e-231
3.316617039e-227
2.071506361e-223
1.057247574e-219
4.366931741e-216
1.441462638e-212
3.738079039e-209
7.434855411e-206
1.093870329e-202
1.120668467e-199
7.10440363e-197
2.064826839e-194
1.853374677e-193
4.192953737e-193
2.5578481e-192
2.689999034e-193
2.402733975e-193
2.517125566e-193
5.874039262e-193
1.859127336e-192
5.299011954e-193
1.477113713e-192
0
0
6.740746476e-09
-0.002164864956
0.3086537054
9.554952649e-293
1.318280182e-287
1.308819386e-282
9.178290995e-278
4.810430354e-273
1.96255841e-268
6.415863971e-264
1.716456223e-259
3.814456682e-255
7.107849867e-251
1.115434981e-246
1.474365184e-242
1.636502004e-238
1.517705274e-234
1.168582166e-230
7.415055227e-227
3.844001808e-223
1.610942019e-219
5.384631576e-216
1.409981866e-212
2.820630111e-209
4.152746241e-206
4.233862897e-203
2.664228487e-200
7.7725736e-198
7.217173177e-197
1.787038792e-196
1.267890798e-195
1.617374077e-196
9.837588592e-197
1.113016581e-196
2.372861104e-196
8.484036859e-196
2.174753236e-196
5.68640445e-196
0
0
6.594420327e-09
-0.002191379791