/*--------------------------------*- C++ -*----------------------------------*\
| =========                 |                                                 |
| \\      /  F ield         | OpenFOAM: The Open Source CFD Toolbox           |
|  \\    /   O peration     | Version:  v1912                                 |
|   \\  /    A nd           | Website:  www.openfoam.com                      |
|    \\/     M anipulation  |                                                 |
\*---------------------------------------------------------------------------*/
FoamFile
{
    version     2.0;
    format      ascii;
    class       volScalarField;
    location    "0.1";
    object      k.gas_0;
}
// * * * * * * * * * * * * * * * * * * * * * * * * * * * * * * * * * * * * * //

dimensions      [0 2 -2 0 0 0 0];


internalField   nonuniform List<scalar> 
4800
(
1.820759833e-07
1.911708132e-07
1.941661048e-07
1.958003306e-07
1.968717404e-07
1.976459843e-07
1.982406418e-07
1.987169265e-07
1.991102973e-07
1.994429182e-07
1.997294577e-07
1.999800664e-07
2.002020246e-07
2.004007096e-07
2.005801925e-07
2.007436209e-07
2.008934739e-07
2.010317656e-07
2.011601872e-07
2.012801063e-07
2.01392675e-07
2.014988982e-07
2.015996769e-07
2.016958616e-07
2.017883223e-07
2.018779924e-07
2.019659856e-07
2.020537558e-07
2.021433469e-07
2.022378605e-07
2.023422979e-07
2.024651879e-07
2.026220077e-07
2.028428817e-07
2.031917293e-07
2.038207208e-07
2.051546748e-07
2.092283196e-07
1.819228563e-07
2.878543928e-06
4.779292115e-07
5.058292149e-07
5.150689967e-07
5.20102205e-07
5.233889343e-07
5.257520487e-07
5.275566057e-07
5.289928861e-07
5.301711749e-07
5.311604181e-07
5.320062432e-07
5.327402188e-07
5.333849815e-07
5.339572487e-07
5.344696763e-07
5.349320501e-07
5.353520771e-07
5.357358765e-07
5.36088299e-07
5.364134091e-07
5.36714606e-07
5.369947486e-07
5.372562685e-07
5.375012805e-07
5.377316088e-07
5.379489154e-07
5.381547313e-07
5.383505433e-07
5.385379053e-07
5.3871858e-07
5.388948544e-07
5.390701306e-07
5.392502767e-07
5.394469203e-07
5.396867822e-07
5.400416515e-07
5.407414885e-07
5.432465432e-07
8.37493701e-07
1.759954371e-05
4.515870831e-07
4.775891422e-07
4.862085613e-07
4.909108424e-07
4.939864194e-07
4.962013209e-07
4.97895415e-07
4.992458772e-07
5.003554125e-07
5.012882363e-07
5.020868468e-07
5.02780646e-07
5.033907107e-07
5.039325968e-07
5.044180678e-07
5.048562038e-07
5.052541351e-07
5.05617571e-07
5.059511998e-07
5.062588041e-07
5.065434913e-07
5.068078416e-07
5.07054018e-07
5.072838173e-07
5.074987612e-07
5.077001017e-07
5.078888692e-07
5.080658751e-07
5.082317267e-07
5.083868378e-07
5.085314199e-07
5.086655581e-07
5.087894041e-07
5.089039634e-07
5.090136813e-07
5.09135512e-07
5.093327095e-07
5.097625743e-07
9.036393103e-07
1.738833754e-05
4.530584055e-07
4.791612521e-07
4.878127345e-07
4.925316923e-07
4.956176476e-07
4.97839657e-07
4.995389244e-07
5.008933176e-07
5.020059412e-07
5.0294126e-07
5.037419378e-07
5.044374919e-07
5.050490841e-07
5.05592335e-07
5.060790599e-07
5.065183824e-07
5.069174718e-07
5.072820454e-07
5.076167145e-07
5.079252518e-07
5.082107708e-07
5.084758582e-07
5.08722674e-07
5.089530265e-07
5.091684291e-07
5.093701397e-07
5.0955919e-07
5.097364049e-07
5.099024108e-07
5.100576429e-07
5.102023589e-07
5.103366928e-07
5.10460841e-07
5.105756466e-07
5.106843654e-07
5.107979345e-07
5.109500206e-07
5.109571674e-07
9.647944846e-07
1.7452003e-05
4.52974546e-07
4.790719439e-07
4.87721663e-07
4.924396685e-07
4.955249909e-07
4.977465226e-07
4.994453947e-07
5.007994363e-07
5.019117289e-07
5.028467218e-07
5.03647068e-07
5.043422752e-07
5.049534975e-07
5.054963485e-07
5.059826357e-07
5.064214746e-07
5.06820026e-07
5.071839998e-07
5.075180083e-07
5.078258168e-07
5.081105259e-07
5.083747063e-07
5.086204984e-07
5.088496864e-07
5.090637518e-07
5.092639127e-07
5.094511484e-07
5.096262122e-07
5.097896352e-07
5.099417198e-07
5.100825307e-07
5.102119044e-07
5.103295278e-07
5.104352379e-07
5.105299308e-07
5.1061803e-07
5.107115148e-07
5.103284592e-07
1.005416661e-06
1.749372048e-05
4.529832328e-07
4.790815312e-07
4.877315233e-07
4.924496486e-07
4.955350175e-07
4.977565486e-07
4.994553846e-07
5.008093598e-07
5.019215581e-07
5.028564297e-07
5.036566275e-07
5.043516582e-07
5.049626741e-07
5.055052866e-07
5.059913004e-07
5.064298273e-07
5.068280238e-07
5.071915943e-07
5.07525144e-07
5.078324298e-07
5.081165427e-07
5.083800419e-07
5.086250536e-07
5.088533447e-07
5.090663754e-07
5.092653376e-07
5.094511785e-07
5.096246119e-07
5.097861194e-07
5.099359424e-07
5.100740679e-07
5.102002251e-07
5.103139287e-07
5.10414659e-07
5.105023891e-07
5.10578877e-07
5.106454748e-07
5.096191668e-07
1.065107598e-06
1.74982248e-05
4.529865391e-07
4.790853685e-07
4.877355153e-07
4.924536996e-07
4.955390776e-07
4.977605833e-07
4.994593658e-07
5.008132626e-07
5.019253582e-07
5.028601031e-07
5.036601494e-07
5.043550027e-07
5.049658134e-07
5.055081907e-07
5.059939367e-07
5.064321598e-07
5.068300126e-07
5.071931949e-07
5.075263065e-07
5.078330978e-07
5.081166524e-07
5.083795205e-07
5.08623818e-07
5.088512995e-07
5.090634114e-07
5.092613296e-07
5.094459839e-07
5.096180701e-07
5.09778053e-07
5.099261613e-07
5.100623788e-07
5.101864468e-07
5.102979057e-07
5.103962387e-07
5.10481244e-07
5.10553895e-07
5.106074769e-07
5.082903159e-07
1.131977056e-06
1.750321968e-05
4.52990264e-07
4.790896501e-07
4.877399602e-07
4.924582096e-07
4.955436021e-07
4.977650879e-07
4.994638229e-07
5.008176477e-07
5.019296483e-07
5.028642751e-07
5.0366418e-07
5.043588675e-07
5.049694865e-07
5.055116444e-07
5.059971413e-07
5.064350827e-07
5.068326179e-07
5.071954435e-07
5.075281547e-07
5.078344975e-07
5.081175499e-07
5.083798562e-07
5.086235257e-07
5.088503062e-07
5.090616376e-07
5.092586897e-07
5.09442389e-07
5.096134331e-07
5.097722974e-07
5.09919238e-07
5.100542925e-07
5.101772972e-07
5.102879414e-07
5.103859105e-07
5.104711966e-07
5.105448487e-07
5.105899e-07
5.065320405e-07
1.175282159e-06
1.75085113e-05
4.529940753e-07
4.790940207e-07
4.877444957e-07
4.924628126e-07
4.955482228e-07
4.977696929e-07
4.994683855e-07
5.008221445e-07
5.019340573e-07
5.028685747e-07
5.036683483e-07
5.04362882e-07
5.049733235e-07
5.055152787e-07
5.06000546e-07
5.064382288e-07
5.068354741e-07
5.071979759e-07
5.075303264e-07
5.078362685e-07
5.081188771e-07
5.083806933e-07
5.086238236e-07
5.088500139e-07
5.090607041e-07
5.092570671e-07
5.094400377e-07
5.096103311e-07
5.097684551e-07
5.099147208e-07
5.100492563e-07
5.101720383e-07
5.102829627e-07
5.103819914e-07
5.104694295e-07
5.105467414e-07
5.105830845e-07
5.052560587e-07
1.204611339e-06
1.751336159e-05
4.529980043e-07
4.790985136e-07
4.877491556e-07
4.92467543e-07
4.955529747e-07
4.977744336e-07
4.994730894e-07
5.008267894e-07
5.019386225e-07
5.0287304e-07
5.036726933e-07
5.043670863e-07
5.049773655e-07
5.055191359e-07
5.060041945e-07
5.064416435e-07
5.068386282e-07
5.072008408e-07
5.075328721e-07
5.078384634e-07
5.081206885e-07
5.083820879e-07
5.086247687e-07
5.088504794e-07
5.090606655e-07
5.092565103e-07
5.094389664e-07
5.096087784e-07
5.097665007e-07
5.099125166e-07
5.100470628e-07
5.101702733e-07
5.102822601e-07
5.103832599e-07
5.104738773e-07
5.105560427e-07
5.105863e-07
5.043253192e-07
1.225373098e-06
1.751767182e-05
4.530020603e-07
4.791031381e-07
4.877539497e-07
4.924724107e-07
4.955578678e-07
4.977793206e-07
4.994779457e-07
5.008315938e-07
5.019433558e-07
5.028776835e-07
5.036772285e-07
5.043714944e-07
5.049816275e-07
5.055232318e-07
5.060081038e-07
5.064453447e-07
5.068420991e-07
5.072040584e-07
5.07535813e-07
5.078411041e-07
5.081230061e-07
5.083840616e-07
5.086263813e-07
5.088517197e-07
5.090615325e-07
5.092570192e-07
5.09439157e-07
5.096087274e-07
5.097663399e-07
5.099124572e-07
5.100474284e-07
5.101715413e-07
5.102851058e-07
5.103885912e-07
5.104828339e-07
5.105701254e-07
5.105961366e-07
5.03631712e-07
1.240509199e-06
1.752146496e-05
4.530062529e-07
4.791079042e-07
4.877588881e-07
4.924774261e-07
4.955629129e-07
4.977843649e-07
4.994829657e-07
5.008365696e-07
5.019482695e-07
5.02882518e-07
5.036819671e-07
5.043761204e-07
5.049861241e-07
5.055275819e-07
5.060122899e-07
5.064493491e-07
5.06845904e-07
5.072076461e-07
5.075391666e-07
5.078442079e-07
5.081258466e-07
5.083866292e-07
5.086286726e-07
5.088537402e-07
5.090633015e-07
5.09258576e-07
5.094405696e-07
5.096101052e-07
5.0976785e-07
5.099143463e-07
5.100500501e-07
5.101753866e-07
5.102908309e-07
5.103970301e-07
5.104949723e-07
5.105871943e-07
5.106101078e-07
5.031049954e-07
1.251858951e-06
1.752479718e-05
4.53010591e-07
4.79112821e-07
4.877639801e-07
4.924825988e-07
4.955681198e-07
4.977895764e-07
4.994881597e-07
5.008417274e-07
5.019533745e-07
5.028875549e-07
5.036869209e-07
5.043809764e-07
5.049908679e-07
5.05532199e-07
5.06016766e-07
5.064536703e-07
5.068500566e-07
5.072116176e-07
5.07542946e-07
5.078477865e-07
5.081292197e-07
5.083897972e-07
5.08631644e-07
5.088565349e-07
5.090659552e-07
5.092611469e-07
5.094431468e-07
5.0961282e-07
5.097708905e-07
5.099179754e-07
5.100546259e-07
5.101813824e-07
5.102988486e-07
5.104077947e-07
5.105092915e-07
5.106060256e-07
5.106265677e-07
5.026982268e-07
1.260572817e-06
1.752772986e-05
4.530150824e-07
4.791178968e-07
4.877692341e-07
4.924879374e-07
4.955734972e-07
4.977949642e-07
4.994935368e-07
5.008470766e-07
5.019586806e-07
5.028928041e-07
5.036921001e-07
5.043860729e-07
5.049958696e-07
5.055370941e-07
5.060215432e-07
5.06458319e-07
5.068545674e-07
5.072159826e-07
5.075471597e-07
5.078518467e-07
5.08133129e-07
5.08393565e-07
5.086352889e-07
5.088600882e-07
5.090694656e-07
5.092646864e-07
5.094468187e-07
5.096167686e-07
5.097753132e-07
5.099231362e-07
5.100608695e-07
5.101891453e-07
5.103086611e-07
5.104202636e-07
5.105250529e-07
5.106257986e-07
5.106444311e-07
5.023795718e-07
1.267424092e-06
1.753032086e-05
4.530197342e-07
4.791231388e-07
4.877746576e-07
4.924934493e-07
4.955790529e-07
4.978005361e-07
4.994991051e-07
5.008526254e-07
5.019641962e-07
5.028982742e-07
5.036975135e-07
5.043914189e-07
5.050011381e-07
5.05542276e-07
5.0602663e-07
5.064633034e-07
5.068594437e-07
5.072207472e-07
5.07551812e-07
5.078563903e-07
5.08137573e-07
5.083979259e-07
5.086395936e-07
5.08864377e-07
5.090737965e-07
5.092691408e-07
5.094515081e-07
5.096218427e-07
5.097809693e-07
5.09929629e-07
5.10068519e-07
5.101983411e-07
5.103198566e-07
5.104339523e-07
5.105417211e-07
5.106459717e-07
5.10663013e-07
5.021264964e-07
1.272884561e-06
1.753262052e-05
4.530245528e-07
4.791285535e-07
4.877802572e-07
4.924991413e-07
4.955847937e-07
4.978062989e-07
4.995048715e-07
5.008583809e-07
5.019699284e-07
5.029039724e-07
5.037031682e-07
5.043970213e-07
5.050066805e-07
5.055477514e-07
5.060320327e-07
5.064686291e-07
5.068646901e-07
5.072259146e-07
5.075569039e-07
5.078614152e-07
5.081425454e-07
5.084028684e-07
5.08644539e-07
5.088693724e-07
5.09078906e-07
5.092744511e-07
5.094571341e-07
5.096279335e-07
5.097877156e-07
5.099372685e-07
5.100773411e-07
5.102086849e-07
5.103321006e-07
5.104484889e-07
5.105589126e-07
5.106661933e-07
5.106818698e-07
5.019231788e-07
1.277298318e-06
1.753467129e-05
4.530295435e-07
4.791341462e-07
4.877860385e-07
4.925050189e-07
4.95590725e-07
4.978122586e-07
4.99510842e-07
5.008643489e-07
5.019758831e-07
5.029099046e-07
5.0370907e-07
5.04402886e-07
5.05012502e-07
5.055535252e-07
5.060377555e-07
5.064742993e-07
5.068703085e-07
5.072314846e-07
5.075624331e-07
5.078669158e-07
5.081480363e-07
5.084083765e-07
5.08650102e-07
5.088750412e-07
5.090847485e-07
5.09280556e-07
5.094636155e-07
5.096349356e-07
5.097954173e-07
5.099458871e-07
5.100871319e-07
5.102199375e-07
5.103451254e-07
5.104635917e-07
5.105763566e-07
5.106862406e-07
5.107007196e-07
5.017581938e-07
1.280912606e-06
1.753650867e-05
4.530347107e-07
4.791399215e-07
4.877920059e-07
4.925110869e-07
4.955968517e-07
4.978184196e-07
4.99517021e-07
5.00870534e-07
5.019820648e-07
5.029160753e-07
5.037152233e-07
5.044090167e-07
5.050186063e-07
5.055596005e-07
5.060438006e-07
5.064803152e-07
5.068762984e-07
5.07237455e-07
5.075683944e-07
5.078728835e-07
5.081540325e-07
5.084144315e-07
5.086562562e-07
5.08881348e-07
5.090912769e-07
5.092873938e-07
5.09470873e-07
5.096427489e-07
5.09803951e-07
5.099553353e-07
5.100977164e-07
5.102319013e-07
5.103587188e-07
5.104790492e-07
5.10593864e-07
5.107059769e-07
5.107193874e-07
5.01623129e-07
1.28390659e-06
1.75381622e-05
4.53040058e-07
4.791458829e-07
4.877981632e-07
4.925173487e-07
4.956031772e-07
4.978247855e-07
4.995234121e-07
5.008769396e-07
5.019884769e-07
5.029224875e-07
5.037216308e-07
5.044154161e-07
5.050249954e-07
5.055659784e-07
5.060501684e-07
5.064866757e-07
5.068826573e-07
5.072438211e-07
5.075747804e-07
5.078793075e-07
5.081605187e-07
5.084210123e-07
5.086629736e-07
5.088882558e-07
5.090984434e-07
5.092949039e-07
5.094788311e-07
5.096512808e-07
5.09813205e-07
5.099654823e-07
5.101089461e-07
5.102444146e-07
5.103727148e-07
5.104947041e-07
5.106113051e-07
5.107253228e-07
5.107377674e-07
5.01511691e-07
1.286412595e-06
1.753965289e-05
4.530455881e-07
4.791520329e-07
4.878045127e-07
4.925238069e-07
4.95609704e-07
4.978313588e-07
4.995300177e-07
5.00883568e-07
5.019951213e-07
5.029291431e-07
5.037282942e-07
5.044220853e-07
5.050316697e-07
5.055726589e-07
5.060568576e-07
5.064933785e-07
5.068893809e-07
5.072505763e-07
5.07581582e-07
5.078861749e-07
5.081674778e-07
5.084280964e-07
5.086702249e-07
5.088957275e-07
5.091062014e-07
5.093030286e-07
5.094874191e-07
5.096604465e-07
5.098230802e-07
5.09976215e-07
5.101206962e-07
5.102573462e-07
5.103869838e-07
5.105104407e-07
5.106285925e-07
5.107442366e-07
5.107557986e-07
5.014190997e-07
1.288530011e-06
1.754100231e-05
4.530513027e-07
4.79158373e-07
4.878110561e-07
4.92530463e-07
4.956164336e-07
4.978381407e-07
4.99536839e-07
5.008904204e-07
5.020019991e-07
5.029360428e-07
5.037352136e-07
5.04429024e-07
5.050386285e-07
5.0557964e-07
5.060638654e-07
5.065004192e-07
5.068964635e-07
5.072577127e-07
5.075887883e-07
5.078934718e-07
5.081748916e-07
5.084356605e-07
5.086779809e-07
5.089037265e-07
5.091145058e-07
5.093117132e-07
5.09496572e-07
5.096701698e-07
5.098334892e-07
5.099874363e-07
5.101328629e-07
5.102705904e-07
5.10401426e-07
5.105261747e-07
5.10645669e-07
5.10762701e-07
5.10773449e-07
5.01341672e-07
1.290334907e-06
1.754223086e-05
4.530572024e-07
4.791649038e-07
4.878177937e-07
4.925373175e-07
4.956233663e-07
4.978451316e-07
4.995438762e-07
5.008974966e-07
5.0200911e-07
5.029431859e-07
5.037423882e-07
5.044362307e-07
5.050458695e-07
5.05586919e-07
5.060711877e-07
5.065077925e-07
5.069038978e-07
5.072652212e-07
5.075963876e-07
5.079011831e-07
5.081827412e-07
5.084436812e-07
5.086862127e-07
5.089122177e-07
5.091233143e-07
5.093209072e-07
5.095062307e-07
5.09680383e-07
5.098443564e-07
5.09999064e-07
5.101453606e-07
5.102840629e-07
5.104159648e-07
5.105418456e-07
5.10662499e-07
5.107807145e-07
5.107907049e-07
5.012765314e-07
1.291886261e-06
1.754334857e-05
4.530632871e-07
4.791716249e-07
4.878247252e-07
4.925443698e-07
4.956305015e-07
4.978523307e-07
4.995511284e-07
5.009047956e-07
5.020164525e-07
5.029505708e-07
5.037498159e-07
5.044437029e-07
5.050533895e-07
5.055944916e-07
5.060788194e-07
5.065154919e-07
5.069116757e-07
5.072730914e-07
5.076043672e-07
5.079092933e-07
5.081910078e-07
5.084521354e-07
5.086948923e-07
5.089211677e-07
5.091325874e-07
5.093305647e-07
5.095163423e-07
5.096910267e-07
5.098556165e-07
5.100110291e-07
5.101581191e-07
5.10297697e-07
5.104305423e-07
5.105574105e-07
5.106790613e-07
5.107982849e-07
5.108075636e-07
5.012213997e-07
1.293230639e-06
1.754436757e-05
4.530695556e-07
4.791785349e-07
4.87831849e-07
4.925516183e-07
4.956378376e-07
4.978597362e-07
4.995585936e-07
5.009123152e-07
5.020240245e-07
5.029581948e-07
5.037574934e-07
5.044514369e-07
5.050611841e-07
5.056023526e-07
5.060867544e-07
5.0652351e-07
5.069197885e-07
5.072813128e-07
5.076127144e-07
5.079177868e-07
5.081996725e-07
5.084610009e-07
5.087039935e-07
5.089305454e-07
5.091422889e-07
5.09340644e-07
5.095268599e-07
5.09702049e-07
5.098672142e-07
5.100232741e-07
5.101710818e-07
5.103114401e-07
5.104451149e-07
5.105728397e-07
5.106953455e-07
5.108154256e-07
5.108240293e-07
5.011744477e-07
1.294405274e-06
1.754529715e-05
4.53076006e-07
4.791856316e-07
4.878391628e-07
4.925590606e-07
4.956453721e-07
4.978673455e-07
4.995662689e-07
5.009200525e-07
5.020318224e-07
5.029660542e-07
5.037654167e-07
5.044594279e-07
5.050692482e-07
5.056104962e-07
5.060949856e-07
5.065318387e-07
5.069282264e-07
5.072898741e-07
5.076214158e-07
5.079266483e-07
5.082087173e-07
5.084702563e-07
5.087134913e-07
5.089403221e-07
5.091523862e-07
5.093511086e-07
5.09537743e-07
5.097134059e-07
5.098791027e-07
5.100357519e-07
5.101842031e-07
5.103252517e-07
5.104596504e-07
5.105881137e-07
5.107113481e-07
5.108321529e-07
5.108401093e-07
5.011341867e-07
1.295440342e-06
1.754614481e-05
4.530826354e-07
4.791929116e-07
4.878466633e-07
4.925666931e-07
4.956531013e-07
4.978751548e-07
4.995741505e-07
5.009280032e-07
5.02039842e-07
5.029741444e-07
5.037735808e-07
5.044676707e-07
5.050775756e-07
5.056189155e-07
5.061035055e-07
5.065404693e-07
5.069369798e-07
5.072987641e-07
5.076304586e-07
5.079358627e-07
5.082181248e-07
5.084798818e-07
5.087233631e-07
5.089504722e-07
5.091628504e-07
5.093619261e-07
5.095489565e-07
5.097250602e-07
5.098912436e-07
5.100484241e-07
5.101974472e-07
5.103391008e-07
5.104741257e-07
5.1060322e-07
5.107270702e-07
5.108484842e-07
5.108558126e-07
5.010993869e-07
1.296360595e-06
1.754691664e-05
4.530894401e-07
4.79200371e-07
4.878543463e-07
4.925745117e-07
4.956610209e-07
4.978831596e-07
4.995822338e-07
5.009361625e-07
5.02048078e-07
5.029824598e-07
5.037819799e-07
5.044761588e-07
5.050861595e-07
5.056276031e-07
5.061123058e-07
5.065493928e-07
5.069460384e-07
5.073079714e-07
5.0763983e-07
5.079454155e-07
5.082278788e-07
5.084898591e-07
5.087335884e-07
5.089609728e-07
5.09173656e-07
5.093730692e-07
5.095604711e-07
5.097369813e-07
5.099036061e-07
5.100612608e-07
5.102107867e-07
5.103529644e-07
5.104885246e-07
5.106181517e-07
5.107425162e-07
5.108644368e-07
5.108711483e-07
5.010690149e-07
1.297186594e-06
1.754761746e-05
4.530964156e-07
4.792080049e-07
4.878622069e-07
4.925825112e-07
4.956691256e-07
4.978913546e-07
4.995905131e-07
5.009445247e-07
5.020565247e-07
5.029909944e-07
5.037906074e-07
5.044848854e-07
5.050949926e-07
5.05636551e-07
5.061213779e-07
5.065585998e-07
5.069553921e-07
5.073174848e-07
5.076495175e-07
5.079552932e-07
5.082379643e-07
5.085001716e-07
5.087441488e-07
5.089718038e-07
5.091847817e-07
5.093845148e-07
5.095722626e-07
5.097491445e-07
5.099161657e-07
5.100742388e-07
5.10224201e-07
5.103668264e-07
5.10502837e-07
5.106329063e-07
5.107576922e-07
5.108800273e-07
5.10886124e-07
5.010421842e-07
1.297935956e-06
1.754825095e-05
4.531035569e-07
4.792158074e-07
4.878702393e-07
4.925906856e-07
4.956774093e-07
4.978997335e-07
4.99598982e-07
5.009530832e-07
5.02065175e-07
5.029997409e-07
5.037994559e-07
5.044938428e-07
5.051040667e-07
5.056457507e-07
5.061307129e-07
5.065680807e-07
5.069650305e-07
5.073272931e-07
5.076595093e-07
5.079654829e-07
5.082483673e-07
5.085108043e-07
5.087550284e-07
5.089829482e-07
5.091962093e-07
5.093962441e-07
5.095843118e-07
5.097615307e-07
5.09928904e-07
5.100873415e-07
5.102376762e-07
5.103806763e-07
5.105170572e-07
5.10647484e-07
5.107726056e-07
5.108952705e-07
5.109007456e-07
5.010181143e-07
1.29862407e-06
1.754881968e-05
4.531108579e-07
4.792237722e-07
4.878784366e-07
4.925990283e-07
4.956858651e-07
4.979082893e-07
4.996076334e-07
5.009618305e-07
5.020740215e-07
5.030086917e-07
5.038085174e-07
5.045030226e-07
5.051133731e-07
5.056551931e-07
5.061403013e-07
5.065778256e-07
5.069749433e-07
5.073373857e-07
5.076697939e-07
5.079759726e-07
5.082590753e-07
5.08521744e-07
5.087662134e-07
5.089943919e-07
5.092079244e-07
5.094082427e-07
5.095966044e-07
5.097741261e-07
5.099418085e-07
5.101005579e-07
5.102512034e-07
5.103945088e-07
5.105311838e-07
5.106618879e-07
5.107872643e-07
5.1091018e-07
5.109150163e-07
5.009961002e-07
1.299264578e-06
1.75493252e-05
4.531183119e-07
4.792318919e-07
4.878867916e-07
4.926075315e-07
4.956944852e-07
4.97917014e-07
4.996164592e-07
5.009707586e-07
5.020830558e-07
5.030178381e-07
5.038177831e-07
5.045124158e-07
5.051229028e-07
5.056648689e-07
5.061501333e-07
5.065878246e-07
5.069851202e-07
5.073477518e-07
5.076803606e-07
5.079867513e-07
5.08270077e-07
5.085329795e-07
5.087776925e-07
5.090061235e-07
5.09219916e-07
5.094204999e-07
5.096091306e-07
5.097869219e-07
5.099548716e-07
5.101138822e-07
5.102647793e-07
5.104083228e-07
5.105452187e-07
5.106761229e-07
5.108016763e-07
5.109247673e-07
5.109289364e-07
5.009754859e-07
1.299870089e-06
1.754976801e-05
4.531259116e-07
4.792401585e-07
4.878952959e-07
4.926161869e-07
4.957032611e-07
4.97925899e-07
4.996254506e-07
5.009798584e-07
5.020922688e-07
5.03027171e-07
5.038272436e-07
5.045220129e-07
5.051326458e-07
5.05674768e-07
5.06160199e-07
5.065980674e-07
5.069955509e-07
5.073583812e-07
5.07691199e-07
5.079978086e-07
5.082813624e-07
5.085445009e-07
5.087894564e-07
5.090181344e-07
5.092321763e-07
5.09433009e-07
5.096218849e-07
5.097999142e-07
5.09968091e-07
5.10127314e-07
5.102784053e-07
5.104221217e-07
5.105591669e-07
5.106901959e-07
5.1081585e-07
5.109390419e-07
5.109425027e-07
5.009556398e-07
1.300452626e-06
1.755014749e-05
4.531336486e-07
4.792485631e-07
4.879039404e-07
4.926249854e-07
4.957121835e-07
4.979349349e-07
4.99634598e-07
5.009891203e-07
5.021016507e-07
5.030366803e-07
5.038368889e-07
5.045318036e-07
5.051425921e-07
5.056848801e-07
5.061704878e-07
5.066085436e-07
5.070062251e-07
5.073692637e-07
5.077022994e-07
5.080091353e-07
5.082929226e-07
5.085563001e-07
5.088014979e-07
5.090304187e-07
5.092447007e-07
5.09445767e-07
5.096348661e-07
5.098131036e-07
5.099814692e-07
5.101408577e-07
5.102920874e-07
5.104359129e-07
5.105730369e-07
5.107041153e-07
5.108297934e-07
5.109530115e-07
5.109557078e-07
5.009359311e-07
1.301023997e-06
1.755046186e-05
4.531415139e-07
4.792570962e-07
4.879127152e-07
4.926339167e-07
4.957212422e-07
4.979441112e-07
4.99643891e-07
5.009985336e-07
5.021111908e-07
5.030463553e-07
5.038467081e-07
5.045417771e-07
5.051527306e-07
5.056951945e-07
5.061809891e-07
5.066192428e-07
5.070171326e-07
5.073803894e-07
5.077136521e-07
5.080207226e-07
5.083047499e-07
5.085683706e-07
5.08813812e-07
5.090429729e-07
5.092574877e-07
5.094587745e-07
5.096480771e-07
5.098264953e-07
5.099950139e-07
5.101545229e-07
5.103058368e-07
5.104497084e-07
5.105868404e-07
5.107178919e-07
5.10843515e-07
5.109666819e-07
5.109685401e-07
5.009157047e-07
1.301596292e-06
1.755070811e-05
4.531494979e-07
4.792657472e-07
4.879216097e-07
4.926429701e-07
4.957304262e-07
4.97953417e-07
4.996533183e-07
5.010080872e-07
5.021208777e-07
5.030561846e-07
5.038566898e-07
5.04551922e-07
5.051630499e-07
5.057056998e-07
5.061916918e-07
5.06630154e-07
5.070282629e-07
5.073917485e-07
5.077252483e-07
5.080325624e-07
5.083168376e-07
5.085807072e-07
5.088263952e-07
5.090557959e-07
5.092705386e-07
5.094720358e-07
5.096615248e-07
5.098400994e-07
5.100087377e-07
5.101683244e-07
5.103196698e-07
5.104635247e-07
5.106005931e-07
5.107315388e-07
5.108570239e-07
5.109800576e-07
5.109809831e-07
5.008942528e-07
1.302182474e-06
1.755088179e-05
4.531575899e-07
4.79274505e-07
4.879306124e-07
4.92652134e-07
4.957397236e-07
4.979628403e-07
4.996628681e-07
5.01017769e-07
5.021306995e-07
5.030661561e-07
5.038668219e-07
5.045622262e-07
5.051735382e-07
5.057163841e-07
5.062025842e-07
5.066412661e-07
5.070396054e-07
5.074033311e-07
5.07737079e-07
5.080446472e-07
5.083291796e-07
5.085933059e-07
5.08839246e-07
5.090688887e-07
5.092838577e-07
5.094855582e-07
5.096752204e-07
5.098539302e-07
5.100226583e-07
5.101822826e-07
5.103336083e-07
5.104773839e-07
5.106143152e-07
5.107450726e-07
5.108703311e-07
5.109931422e-07
5.109930146e-07
5.008707818e-07
1.302797206e-06
1.755097683e-05
4.531657787e-07
4.792833574e-07
4.879397109e-07
4.926613958e-07
4.957491221e-07
4.979723685e-07
4.996725276e-07
5.010275661e-07
5.021406431e-07
5.030762569e-07
5.038770914e-07
5.045726768e-07
5.051841826e-07
5.057272351e-07
5.062136543e-07
5.066525674e-07
5.070511491e-07
5.074151272e-07
5.077491354e-07
5.080569696e-07
5.083417705e-07
5.086061637e-07
5.08852364e-07
5.090822544e-07
5.092974515e-07
5.094993526e-07
5.096891789e-07
5.098680073e-07
5.100367991e-07
5.101964239e-07
5.103476805e-07
5.104913142e-07
5.106280328e-07
5.107585143e-07
5.108834496e-07
5.11005939e-07
5.110046066e-07
5.008443716e-07
1.303457687e-06
1.755098509e-05
4.531740524e-07
4.792922916e-07
4.879488923e-07
4.926707423e-07
4.957586081e-07
4.97981988e-07
4.996822833e-07
5.01037465e-07
5.021506951e-07
5.030864733e-07
5.03887485e-07
5.045832604e-07
5.051949699e-07
5.057382397e-07
5.062248894e-07
5.066640459e-07
5.070628827e-07
5.074271264e-07
5.077614087e-07
5.080695224e-07
5.083546053e-07
5.086192781e-07
5.088657502e-07
5.090958977e-07
5.093113292e-07
5.095134328e-07
5.097034194e-07
5.098823547e-07
5.100511889e-07
5.102107812e-07
5.103619219e-07
5.105053515e-07
5.10641779e-07
5.107718909e-07
5.108963966e-07
5.110184523e-07
5.110157245e-07
5.008139227e-07
1.304184856e-06
1.755089595e-05
4.531823981e-07
4.793012942e-07
4.879581428e-07
4.926801596e-07
4.957681676e-07
4.979916848e-07
4.996921208e-07
5.010474513e-07
5.02160841e-07
5.030967911e-07
5.038979881e-07
5.045939629e-07
5.052058861e-07
5.05749384e-07
5.062362761e-07
5.066756887e-07
5.070747942e-07
5.074393178e-07
5.077738893e-07
5.080822982e-07
5.08367679e-07
5.086326472e-07
5.088794062e-07
5.091098245e-07
5.093255017e-07
5.095278155e-07
5.097179646e-07
5.098970016e-07
5.100658629e-07
5.102253947e-07
5.103763761e-07
5.105195402e-07
5.106555957e-07
5.107852373e-07
5.109091951e-07
5.110306889e-07
5.110263263e-07
5.007780846e-07
1.30500519e-06
1.755069558e-05
4.531908026e-07
4.793103508e-07
4.879674477e-07
4.926896328e-07
4.957777858e-07
4.980014437e-07
4.997020251e-07
5.010575099e-07
5.021710657e-07
5.03107195e-07
5.039085857e-07
5.046047691e-07
5.052169162e-07
5.057606536e-07
5.062478002e-07
5.066874822e-07
5.070868709e-07
5.0745169e-07
5.077865673e-07
5.080952892e-07
5.083809863e-07
5.08646269e-07
5.088933341e-07
5.09124042e-07
5.09339982e-07
5.095425201e-07
5.097328412e-07
5.099119822e-07
5.100808628e-07
5.102403127e-07
5.103910963e-07
5.105339357e-07
5.106695359e-07
5.107985989e-07
5.109218764e-07
5.11042661e-07
5.110363633e-07
5.007351566e-07
1.305953583e-06
1.755036603e-05
4.531992518e-07
4.793194466e-07
4.87976792e-07
4.926991466e-07
4.957874469e-07
4.98011249e-07
4.997119803e-07
5.010676249e-07
5.021813532e-07
5.031176692e-07
5.039192619e-07
5.046156632e-07
5.052280446e-07
5.057720329e-07
5.062594468e-07
5.066994121e-07
5.070990993e-07
5.074642306e-07
5.07799432e-07
5.081084867e-07
5.083945215e-07
5.086601414e-07
5.089075362e-07
5.091385577e-07
5.093547842e-07
5.095575683e-07
5.097480792e-07
5.099273356e-07
5.100962372e-07
5.102555927e-07
5.104061471e-07
5.105486064e-07
5.10683667e-07
5.108120355e-07
5.109344849e-07
5.110543896e-07
5.110457801e-07
5.006829474e-07
1.307078178e-06
1.754988376e-05
4.532077311e-07
4.793285658e-07
4.879861596e-07
4.927086848e-07
4.957971347e-07
4.980210843e-07
4.997219697e-07
5.010777796e-07
5.021916868e-07
5.031281969e-07
5.039299999e-07
5.046266287e-07
5.052392548e-07
5.057835056e-07
5.062711998e-07
5.067114629e-07
5.071114647e-07
5.074769261e-07
5.078124715e-07
5.081218812e-07
5.084082778e-07
5.086742613e-07
5.089220141e-07
5.091533793e-07
5.093699231e-07
5.095729835e-07
5.097637119e-07
5.099431062e-07
5.10112042e-07
5.102713021e-07
5.104216057e-07
5.105636359e-07
5.10698074e-07
5.108256251e-07
5.109470821e-07
5.110659101e-07
5.110545163e-07
5.006185738e-07
1.308448742e-06
1.754921732e-05
4.532162251e-07
4.793376924e-07
4.87995534e-07
4.927182304e-07
4.958068319e-07
4.980309322e-07
4.997319761e-07
5.010879565e-07
5.022020491e-07
5.031387606e-07
5.039407823e-07
5.046376479e-07
5.052505294e-07
5.057950545e-07
5.062830422e-07
5.067236179e-07
5.071239513e-07
5.074897619e-07
5.078256726e-07
5.081354613e-07
5.08422247e-07
5.086886243e-07
5.089367687e-07
5.091685137e-07
5.093854135e-07
5.095887902e-07
5.097797753e-07
5.099593428e-07
5.101283405e-07
5.102875188e-07
5.104375637e-07
5.105791267e-07
5.107128636e-07
5.108394699e-07
5.109597535e-07
5.110772797e-07
5.110625087e-07
5.005381729e-07
1.310172514e-06
1.754832349e-05
4.532247184e-07
4.793468095e-07
4.880048981e-07
4.92727766e-07
4.958165208e-07
4.980407747e-07
4.997419813e-07
5.010981374e-07
5.022124217e-07
5.031493421e-07
5.039515908e-07
5.046487026e-07
5.0526185e-07
5.058066613e-07
5.06294956e-07
5.067358595e-07
5.071365418e-07
5.075027215e-07
5.078390204e-07
5.081492144e-07
5.08436419e-07
5.087032243e-07
5.089517988e-07
5.091839666e-07
5.094012695e-07
5.096050128e-07
5.097963068e-07
5.099760985e-07
5.101452031e-07
5.103043322e-07
5.104541293e-07
5.105952024e-07
5.107281694e-07
5.108537031e-07
5.109726172e-07
5.110885869e-07
5.110696961e-07
5.00436506e-07
1.312420865e-06
1.754714054e-05
4.532331948e-07
4.793559001e-07
4.88014234e-07
4.927372733e-07
4.958261827e-07
4.980505929e-07
4.997519661e-07
5.011083034e-07
5.022227855e-07
5.031599223e-07
5.039624063e-07
5.046597735e-07
5.052731972e-07
5.058183065e-07
5.063069216e-07
5.067481685e-07
5.071492174e-07
5.07515787e-07
5.078524981e-07
5.081631254e-07
5.084507814e-07
5.087180524e-07
5.089671007e-07
5.09199741e-07
5.09417503e-07
5.09621675e-07
5.098133445e-07
5.099934291e-07
5.101627067e-07
5.103218431e-07
5.104714282e-07
5.106120125e-07
5.107441584e-07
5.108684974e-07
5.109858348e-07
5.110999638e-07
5.110760247e-07
5.003064824e-07
1.315513255e-06
1.75455753e-05
4.532416381e-07
4.793649468e-07
4.880235236e-07
4.927467336e-07
4.958357983e-07
4.980603671e-07
4.99761911e-07
5.011184346e-07
5.022331209e-07
5.031704812e-07
5.039732088e-07
5.046708406e-07
5.052845509e-07
5.058299697e-07
5.063189185e-07
5.067605241e-07
5.071619576e-07
5.075289382e-07
5.078660865e-07
5.081771764e-07
5.084653188e-07
5.087330967e-07
5.089826671e-07
5.092158365e-07
5.094341227e-07
5.096387976e-07
5.098309254e-07
5.100113919e-07
5.101809336e-07
5.103401633e-07
5.10489605e-07
5.106297348e-07
5.107610367e-07
5.108840753e-07