/*--------------------------------*- C++ -*----------------------------------*\
| =========                 |                                                 |
| \\      /  F ield         | OpenFOAM: The Open Source CFD Toolbox           |
|  \\    /   O peration     | Version:  v1912                                 |
|   \\  /    A nd           | Website:  www.openfoam.com                      |
|    \\/     M anipulation  |                                                 |
\*---------------------------------------------------------------------------*/
FoamFile
{
    version     2.0;
    format      ascii;
    class       volScalarField;
    location    "0.1";
    object      k.gas;
}
// * * * * * * * * * * * * * * * * * * * * * * * * * * * * * * * * * * * * * //

dimensions      [0 2 -2 0 0 0 0];


internalField   nonuniform List<scalar> 
4800
(
1.832510076e-07
1.925471039e-07
1.956120073e-07
1.972848982e-07
1.983819527e-07
1.991748907e-07
1.99784009e-07
2.002719476e-07
2.006749967e-07
2.010158427e-07
2.013095016e-07
2.015663651e-07
2.017938871e-07
2.019975742e-07
2.021815955e-07
2.023491754e-07
2.025028582e-07
2.026447444e-07
2.027765425e-07
2.028996519e-07
2.030152595e-07
2.031244055e-07
2.032280286e-07
2.033270223e-07
2.034223089e-07
2.035148908e-07
2.036059765e-07
2.036971563e-07
2.037906789e-07
2.038899646e-07
2.040005322e-07
2.041317878e-07
2.043007776e-07
2.045406208e-07
2.049214547e-07
2.056098885e-07
2.070697244e-07
2.115610117e-07
1.795487018e-07
2.951885181e-06
4.828806292e-07
5.115993892e-07
5.21123649e-07
5.263144034e-07
5.297049998e-07
5.321432759e-07
5.340055027e-07
5.354878553e-07
5.367040571e-07
5.377252148e-07
5.38598392e-07
5.393561546e-07
5.400218568e-07
5.406127476e-07
5.411418866e-07
5.416193733e-07
5.420531573e-07
5.424494762e-07
5.428133969e-07
5.431491336e-07
5.434601989e-07
5.437495474e-07
5.440196935e-07
5.442728261e-07
5.44510837e-07
5.447354532e-07
5.44948272e-07
5.451508526e-07
5.453448367e-07
5.455321044e-07
5.457151182e-07
5.458975712e-07
5.460858667e-07
5.462927326e-07
5.465474384e-07
5.469285862e-07
5.476874542e-07
5.504944336e-07
8.662446229e-07
1.825317635e-05
4.56238954e-07
4.829993483e-07
4.918823881e-07
4.967308703e-07
4.999029868e-07
5.021878573e-07
5.039357166e-07
5.053291901e-07
5.064741615e-07
5.074368437e-07
5.082610624e-07
5.089771407e-07
5.096068178e-07
5.101661396e-07
5.106672407e-07
5.111194878e-07
5.11530238e-07
5.119054309e-07
5.122498689e-07
5.125674437e-07
5.128613603e-07
5.131342807e-07
5.133884367e-07
5.136256826e-07
5.138475883e-07
5.140554468e-07
5.14250323e-07
5.144330576e-07
5.146042851e-07
5.147644468e-07
5.149137915e-07
5.150524696e-07
5.151807754e-07
5.153000625e-07
5.154156953e-07
5.155472367e-07
5.157660427e-07
5.162702785e-07
9.354914682e-07
1.808600547e-05
4.577262293e-07
4.845905213e-07
4.935066684e-07
4.983723822e-07
5.015552287e-07
5.03847453e-07
5.056006695e-07
5.069982184e-07
5.081463968e-07
5.091116752e-07
5.099380507e-07
5.10655966e-07
5.112872482e-07
5.118480106e-07
5.123504417e-07
5.128039539e-07
5.132159441e-07
5.135923053e-07
5.139377991e-07
5.142563201e-07
5.145510813e-07
5.148247525e-07
5.150795628e-07
5.153173795e-07
5.155397651e-07
5.157480202e-07
5.159432128e-07
5.161262002e-07
5.162976392e-07
5.164579975e-07
5.166075755e-07
5.167465778e-07
5.168753392e-07
5.169950066e-07
5.17109549e-07
5.172316589e-07
5.173995397e-07
5.174315626e-07
1.000136452e-06
1.81545596e-05
4.57641294e-07
4.844999582e-07
4.9341428e-07
4.982790066e-07
5.01461196e-07
5.037529233e-07
5.055057276e-07
5.069029092e-07
5.08050741e-07
5.090156778e-07
5.098417051e-07
5.105592558e-07
5.111901491e-07
5.117504907e-07
5.122524611e-07
5.127054645e-07
5.131168886e-07
5.134926248e-07
5.138374321e-07
5.141551955e-07
5.144491143e-07
5.147218415e-07
5.14975586e-07
5.152121892e-07
5.154331811e-07
5.1563982e-07
5.15833119e-07
5.160138602e-07
5.161825995e-07
5.163396635e-07
5.164851458e-07
5.166189275e-07
5.167407828e-07
5.168507352e-07
5.169500988e-07
5.170442346e-07
5.171472057e-07
5.167752406e-07
1.044416626e-06
1.820634987e-05
4.576499178e-07
4.845094999e-07
4.934240995e-07
4.982889474e-07
5.014711826e-07
5.037629073e-07
5.055156722e-07
5.069127831e-07
5.080605151e-07
5.090253241e-07
5.098511953e-07
5.105685606e-07
5.111992373e-07
5.11759329e-07
5.122610132e-07
5.1271369e-07
5.131247428e-07
5.135000571e-07
5.138443844e-07
5.141616012e-07
5.14454897e-07
5.147269125e-07
5.14979842e-07
5.152155089e-07
5.154354208e-07
5.156408086e-07
5.158326516e-07
5.1601169e-07
5.16178427e-07
5.163331229e-07
5.164757847e-07
5.166061702e-07
5.167238475e-07
5.168284088e-07
5.169200648e-07
5.170010592e-07
5.170736711e-07
5.160629879e-07
1.104736985e-06
1.821172572e-05
4.576531055e-07
4.845132246e-07
4.934279798e-07
4.98292886e-07
5.014751284e-07
5.037668248e-07
5.055195324e-07
5.069165599e-07
5.080641834e-07
5.090288587e-07
5.098545705e-07
5.105717494e-07
5.112022107e-07
5.117620556e-07
5.122634591e-07
5.127158176e-07
5.131265105e-07
5.135014186e-07
5.138452876e-07
5.141619875e-07
5.144546997e-07
5.147260558e-07
5.149782392e-07
5.152130607e-07
5.15432013e-07
5.156363104e-07
5.158269136e-07
5.160045432e-07
5.161696835e-07
5.163225788e-07
5.164632275e-07
5.165913889e-07
5.167066358e-07
5.168085171e-07
5.168969635e-07
5.16973198e-07
5.170308244e-07
5.1474348e-07
1.178510664e-06
1.821679452e-05
4.576567196e-07
4.845174025e-07
4.934323222e-07
4.982972931e-07
5.014795483e-07
5.03771222e-07
5.055238784e-07
5.069208294e-07
5.080683523e-07
5.090329029e-07
5.098584658e-07
5.105754703e-07
5.112057303e-07
5.117653449e-07
5.12266487e-07
5.127185503e-07
5.131289105e-07
5.135034451e-07
5.138468951e-07
5.141631257e-07
5.144553127e-07
5.147260815e-07
5.149776085e-07
5.152116974e-07
5.154298339e-07
5.156332258e-07
5.158228299e-07
5.159993678e-07
5.161633336e-07
5.163149972e-07
5.164544084e-07
5.165814162e-07
5.166957308e-07
5.167970782e-07
5.168855279e-07
5.169622643e-07
5.17010159e-07
5.128559966e-07
1.226175076e-06
1.822237088e-05
4.576604251e-07
4.845216745e-07
4.934367604e-07
4.983017984e-07
5.014840698e-07
5.037757253e-07
5.055283357e-07
5.069252165e-07
5.080726464e-07
5.090370815e-07
5.098625059e-07
5.105793486e-07
5.112094218e-07
5.117688235e-07
5.122697246e-07
5.127215166e-07
5.131315729e-07
5.135057681e-07
5.138488403e-07
5.141646515e-07
5.144563741e-07
5.147266301e-07
5.14977593e-07
5.152110645e-07
5.154285301e-07
5.156312005e-07
5.158200407e-07
5.159957901e-07
5.161589748e-07
5.163099199e-07
5.164487651e-07
5.165754984e-07
5.166900319e-07
5.167923563e-07
5.168828284e-07
5.169629971e-07
5.170004724e-07
5.114528706e-07
1.258447966e-06
1.822753863e-05
4.57664254e-07
4.845260748e-07
4.934413291e-07
4.983064373e-07
5.014887288e-07
5.037803707e-07
5.055329411e-07
5.069297587e-07
5.080771039e-07
5.090414333e-07
5.098667309e-07
5.105834251e-07
5.112133276e-07
5.117725349e-07
5.122732168e-07
5.127247632e-07
5.13134546e-07
5.13508438e-07
5.138511756e-07
5.141666191e-07
5.144579399e-07
5.147277593e-07
5.149782515e-07
5.152112205e-07
5.154281578e-07
5.156302844e-07
5.158185837e-07
5.159938246e-07
5.161565809e-07
5.163072507e-07
5.164460833e-07
5.165732246e-07
5.166888028e-07
5.167930792e-07
5.168867002e-07
5.169716838e-07
5.170013789e-07
5.104291054e-07
1.281280613e-06
1.823215535e-05
4.57668216e-07
4.845306131e-07
4.934460385e-07
4.983112202e-07
5.014935359e-07
5.037851695e-07
5.055377062e-07
5.069344681e-07
5.080817376e-07
5.090459718e-07
5.098711548e-07
5.10587715e-07
5.112174634e-07
5.117764959e-07
5.122769813e-07
5.127283091e-07
5.131378498e-07
5.135114758e-07
5.138539229e-07
5.141690514e-07
5.144600334e-07
5.147294921e-07
5.149796053e-07
5.152121835e-07
5.154287284e-07
5.156304779e-07
5.158184402e-07
5.159934225e-07
5.161560544e-07
5.163068153e-07
5.164460689e-07
5.165741169e-07
5.166912868e-07
5.167980732e-07
5.168953511e-07
5.169855162e-07
5.170096012e-07
5.096657174e-07
1.297925352e-06
1.823623159e-05
4.576723211e-07
4.845353001e-07
4.934508994e-07
4.983161582e-07
5.014985025e-07
5.037901333e-07
5.05542643e-07
5.069393572e-07
5.080865602e-07
5.090507103e-07
5.098757916e-07
5.105922327e-07
5.112218445e-07
5.117807224e-07
5.12281035e-07
5.127321714e-07
5.131415023e-07
5.135148998e-07
5.138571008e-07
5.141719666e-07
5.144626717e-07
5.147318435e-07
5.149816661e-07
5.15213959e-07
5.154302383e-07
5.156317624e-07
5.158195692e-07
5.159945081e-07
5.161572682e-07
5.163084103e-07
5.164484074e-07
5.165777013e-07
5.166967872e-07
5.168063389e-07
5.169073836e-07
5.170025811e-07
5.170224664e-07
5.09085594e-07
1.310405863e-06
1.823982017e-05
4.576765788e-07
4.845401452e-07
4.934559215e-07
4.983212612e-07
5.015036388e-07
5.037952725e-07
5.055477621e-07
5.06944437e-07
5.080915834e-07
5.090556607e-07
5.098806537e-07
5.105969911e-07
5.112264841e-07
5.117852281e-07
5.122853918e-07
5.127363646e-07
5.131455177e-07
5.135187242e-07
5.138607227e-07
5.14175377e-07
5.144658653e-07
5.147348206e-07
5.149844354e-07
5.152165409e-07
5.154326696e-07
5.15634103e-07
5.158219109e-07
5.159969861e-07
5.161600764e-07
5.163118192e-07
5.16452785e-07
5.165835336e-07
5.167046915e-07
5.168170574e-07
5.169217414e-07
5.170215716e-07
5.170381873e-07
5.086372046e-07
1.319987722e-06
1.824298298e-05
4.576809974e-07
4.845451573e-07
4.934611137e-07
4.983265383e-07
5.015089541e-07
5.038005967e-07
5.055530734e-07
5.069497175e-07
5.080968173e-07
5.090608336e-07
5.098857519e-07
5.106020013e-07
5.112313935e-07
5.117900244e-07
5.122900632e-07
5.127409e-07
5.131499071e-07
5.135229593e-07
5.138647977e-07
5.141792894e-07
5.144696179e-07
5.147384229e-07
5.149879065e-07
5.152199132e-07
5.154359932e-07
5.156374524e-07
5.158253928e-07
5.160007495e-07
5.161643248e-07
5.163168251e-07
5.164589036e-07
5.165912143e-07
5.167144796e-07
5.168295763e-07
5.169376441e-07
5.170416094e-07
5.170555749e-07
5.082855945e-07
1.327518711e-06
1.824577996e-05
4.576855844e-07
4.845503439e-07
4.934664839e-07
4.983319975e-07
5.015144567e-07
5.038061141e-07
5.055585854e-07
5.069552074e-07
5.081022708e-07
5.09066238e-07
5.098910953e-07
5.106072725e-07
5.112365821e-07
5.117951207e-07
5.122950582e-07
5.127457861e-07
5.131546783e-07
5.135276117e-07
5.138693305e-07
5.141837062e-07
5.14473928e-07
5.147426435e-07
5.149920652e-07
5.152240518e-07
5.154401717e-07
5.156417549e-07
5.158299346e-07
5.160056855e-07
5.161698591e-07
5.163232205e-07
5.164664905e-07
5.166003947e-07
5.167257208e-07
5.168433866e-07
5.169545244e-07
5.170621128e-07
5.170738704e-07
5.080060284e-07
1.333521144e-06
1.824826398e-05
4.576903463e-07
4.845557119e-07
4.934720392e-07
4.983376459e-07
5.015201535e-07
5.038118322e-07
5.055643054e-07
5.069609141e-07
5.081079516e-07
5.090718816e-07
5.098966917e-07
5.106128125e-07
5.112420574e-07
5.118005241e-07
5.123003836e-07
5.127510289e-07
5.13159836e-07
5.135326844e-07
5.13874322e-07
5.141886251e-07
5.144787893e-07
5.147474703e-07
5.149968918e-07
5.152289266e-07
5.154451613e-07
5.156469492e-07
5.158354524e-07
5.160116812e-07
5.161765298e-07
5.163308124e-07
5.164753024e-07
5.166107771e-07
5.167380648e-07
5.168580973e-07
5.169719758e-07
5.170827028e-07
5.170925766e-07
5.077811321e-07
1.338373727e-06
1.825047992e-05
4.576952889e-07
4.845612671e-07
4.934777853e-07
4.983434895e-07
5.015260508e-07
5.038177569e-07
5.055702395e-07
5.06966844e-07
5.081138658e-07
5.090777705e-07
5.09902547e-07
5.106186271e-07
5.11247825e-07
5.118062398e-07
5.123060438e-07
5.127566319e-07
5.131653824e-07
5.135381778e-07
5.1387977e-07
5.141940403e-07
5.144841913e-07
5.147528871e-07
5.150023622e-07
5.152345035e-07
5.15450915e-07
5.156529715e-07
5.158418616e-07
5.160186267e-07
5.16184197e-07
5.163394259e-07
5.164851268e-07
5.16622112e-07
5.16751231e-07
5.168734113e-07
5.169897102e-07
5.17103138e-07
5.171113734e-07
5.075983565e-07
1.342348106e-06
1.825246548e-05
4.577004169e-07
4.845670142e-07
4.934837273e-07
4.983495331e-07
5.015321533e-07
5.038238933e-07
5.055763928e-07
5.069730018e-07
5.081200183e-07
5.090839096e-07
5.09908666e-07
5.106247206e-07
5.112538888e-07
5.11812271e-07
5.123120413e-07
5.127625963e-07
5.131713171e-07
5.135440894e-07
5.138856692e-07
5.141999432e-07
5.144901206e-07
5.147588742e-07
5.150084491e-07
5.152407454e-07
5.154573835e-07
5.156597576e-07
5.158490798e-07
5.16026418e-07
5.161927318e-07
5.163489055e-07
5.16495781e-07
5.166341924e-07
5.16764997e-07
5.168891057e-07
5.170075261e-07
5.171232688e-07
5.171300578e-07
5.074484605e-07
1.345640985e-06
1.825425215e-05
4.577057342e-07
4.84572957e-07
4.93489869e-07
4.983557807e-07
5.01538465e-07
5.038302451e-07
5.055827691e-07
5.069793914e-07
5.081264127e-07
5.090903022e-07
5.099150518e-07
5.106310958e-07
5.11260251e-07
5.118186192e-07
5.123183765e-07
5.127689214e-07
5.131776377e-07
5.135504146e-07
5.138920121e-07
5.142063224e-07
5.144965614e-07
5.147654099e-07
5.150151233e-07
5.15247614e-07
5.154645173e-07
5.156672447e-07
5.158570283e-07
5.160349584e-07
5.162020181e-07
5.163591148e-07
5.165071099e-07
5.166468493e-07
5.167791883e-07
5.169050145e-07
5.170252847e-07
5.171430076e-07
5.171485037e-07
5.0732453e-07
1.348397542e-06
1.825586481e-05
4.577112437e-07
4.845790984e-07
4.934962131e-07
4.983622351e-07
5.015449886e-07
5.038368152e-07
5.05589371e-07
5.069860152e-07
5.081330514e-07
5.090969505e-07
5.099217061e-07
5.106377539e-07
5.112669123e-07
5.118252844e-07
5.123250482e-07
5.127756045e-07
5.131843397e-07
5.135571466e-07
5.138987892e-07
5.142131649e-07
5.145034958e-07
5.147724709e-07
5.150223546e-07
5.152550708e-07
5.154722678e-07
5.156753724e-07
5.158656336e-07
5.160441598e-07
5.162119524e-07
5.163699357e-07
5.165189832e-07
5.166599452e-07
5.167936689e-07
5.169210151e-07
5.170428921e-07
5.171623068e-07
5.171666352e-07
5.072213125e-07
1.350726758e-06
1.825732132e-05
4.577169472e-07
4.8458544e-07
4.935027614e-07
4.983688979e-07
5.015517257e-07
5.038436049e-07
5.055961999e-07
5.069928746e-07
5.081399353e-07
5.091038552e-07
5.099286293e-07
5.10644695e-07
5.112738718e-07
5.118322648e-07
5.123320537e-07
5.127826415e-07
5.131914174e-07
5.135642773e-07
5.139059894e-07
5.14220456e-07
5.145109051e-07
5.14780033e-07
5.150301125e-07
5.152630777e-07
5.154805884e-07
5.156840841e-07
5.15874828e-07
5.160539429e-07
5.162224439e-07
5.163812668e-07
5.165312923e-07
5.166733696e-07
5.168083338e-07
5.169370181e-07
5.170602866e-07
5.171811458e-07
5.171844091e-07
5.0713476e-07
1.352712049e-06
1.825864772e-05
4.577228457e-07
4.845919826e-07
4.935095145e-07
4.983757698e-07
5.015586769e-07
5.038506148e-07
5.056032561e-07
5.069999696e-07
5.081470645e-07
5.09111016e-07
5.099358207e-07
5.106519176e-07
5.112811277e-07
5.118395576e-07
5.123393889e-07
5.12790027e-07
5.131988633e-07
5.135717972e-07
5.139136006e-07
5.142281803e-07
5.145187697e-07
5.147880719e-07
5.150383672e-07
5.152715982e-07
5.154894348e-07
5.156933273e-07
5.1588455e-07
5.160642371e-07
5.162334134e-07
5.163930225e-07
5.165439477e-07
5.166870339e-07
5.168231022e-07
5.169529591e-07
5.170774291e-07
5.171995204e-07
5.172018034e-07
5.070617107e-07
1.354418224e-06
1.825985401e-05
4.57728939e-07
4.845987259e-07
4.93516472e-07
4.983828504e-07
5.015658418e-07
5.038578442e-07
5.05610539e-07
5.070072993e-07
5.081544377e-07
5.091184312e-07
5.099432782e-07
5.106594191e-07
5.112886765e-07
5.118471586e-07
5.123470487e-07
5.127977542e-07
5.132066693e-07
5.13579696e-07
5.139216098e-07
5.142363218e-07
5.145270702e-07
5.147965638e-07
5.150470897e-07
5.152805977e-07
5.154987661e-07
5.157030541e-07
5.158947446e-07
5.160749804e-07
5.162447931e-07
5.164051306e-07
5.165568762e-07
5.167008682e-07
5.16837913e-07
5.169687926e-07
5.170942965e-07
5.172174371e-07
5.172188092e-07
5.069996598e-07
1.35589659e-06
1.826095291e-05
4.577352261e-07
4.846056687e-07
4.935236327e-07
4.983901383e-07
5.015732187e-07
5.038652915e-07
5.056180465e-07
5.070148617e-07
5.081620525e-07
5.091260981e-07
5.099509987e-07
5.106671959e-07
5.11296514e-07
5.118550626e-07
5.123550267e-07
5.128058158e-07
5.132148262e-07
5.135879626e-07
5.139300038e-07
5.142448644e-07
5.145357871e-07
5.148054856e-07
5.150562524e-07
5.152900438e-07
5.155085448e-07
5.157132212e-07
5.159053629e-07
5.160861189e-07
5.162565251e-07
5.164175311e-07
5.165700183e-07
5.167148173e-07
5.168527203e-07
5.169844869e-07
5.171108764e-07
5.172349087e-07
5.172354256e-07
5.069465959e-07
1.357188343e-06
1.82619545e-05
4.577417052e-07
4.846128087e-07
4.935309943e-07
4.983976309e-07
5.015808052e-07
5.03872954e-07
5.05625776e-07
5.070226537e-07
5.081699057e-07
5.091340132e-07
5.099589781e-07
5.106752434e-07
5.113046349e-07
5.118632635e-07
5.123633159e-07
5.128142034e-07
5.132233242e-07
5.135965856e-07
5.13938769e-07
5.142537923e-07
5.145449018e-07
5.148148152e-07
5.150658299e-07
5.152999071e-07
5.155187368e-07
5.157237905e-07
5.159163628e-07
5.160976067e-07
5.162685609e-07
5.164301747e-07
5.165833264e-07
5.167288385e-07
5.1686749e-07
5.170000205e-07
5.171271643e-07
5.17251951e-07
5.172516562e-07
5.069008813e-07
1.358327e-06
1.826286688e-05
4.577483733e-07
4.846201428e-07
4.935385534e-07
4.984053249e-07
5.015885978e-07
5.038808281e-07
5.056337235e-07
5.070306713e-07
5.081779929e-07
5.091421718e-07
5.099672113e-07
5.106835561e-07
5.11313033e-07
5.118717545e-07
5.123719086e-07
5.128229081e-07
5.132321533e-07
5.136055533e-07
5.13947892e-07
5.142630899e-07
5.145543962e-07
5.148245322e-07
5.150757987e-07
5.153101607e-07
5.155293123e-07
5.157347286e-07
5.159277078e-07
5.161094051e-07
5.162808603e-07
5.164430215e-07
5.165967629e-07
5.167428993e-07
5.168821975e-07
5.1701538e-07
5.171431607e-07
5.172685811e-07
5.172675067e-07
5.068611624e-07
1.359340109e-06
1.826369662e-05
4.57755227e-07
4.846276669e-07
4.93546306e-07
4.984132161e-07
5.015965921e-07
5.038889093e-07
5.056418845e-07
5.070389095e-07
5.08186309e-07
5.091505683e-07
5.099756926e-07
5.106921275e-07
5.113217015e-07
5.11880528e-07
5.123807963e-07
5.128319208e-07
5.132413032e-07
5.136148542e-07
5.139573597e-07
5.142727424e-07
5.145642538e-07
5.148346176e-07
5.150861374e-07
5.153207809e-07
5.155402449e-07
5.157460071e-07
5.159393673e-07
5.16121482e-07
5.16293391e-07
5.1645604e-07
5.16610299e-07
5.167569755e-07
5.168968256e-07
5.170305578e-07
5.171588695e-07
5.172848162e-07
5.172829833e-07
5.068263015e-07
1.360250481e-06
1.82644489e-05
4.577622616e-07
4.84635376e-07
4.935542471e-07
4.984212992e-07
5.016047828e-07
5.038971921e-07
5.056502532e-07
5.070473626e-07
5.081948479e-07
5.091591965e-07
5.099844151e-07
5.107009507e-07
5.113306328e-07
5.118895758e-07
5.123899704e-07
5.128412319e-07
5.132507633e-07
5.136244767e-07
5.139671595e-07
5.142827358e-07
5.145744589e-07
5.148450542e-07
5.150968271e-07
5.15331747e-07
5.155515123e-07
5.157576019e-07
5.159513163e-07
5.16133812e-07
5.163061275e-07
5.164692061e-07
5.166239133e-07
5.1677105e-07
5.169113632e-07
5.170455505e-07
5.171742963e-07
5.173006731e-07
5.172980918e-07
5.067953223e-07
1.361077436e-06
1.826512766e-05
4.57769472e-07
4.846432644e-07
4.935623706e-07
4.984295683e-07
5.016131637e-07
5.039056702e-07
5.056588232e-07
5.070560238e-07
5.082036027e-07
5.091680492e-07
5.099933716e-07
5.107100179e-07
5.113398186e-07
5.118988894e-07
5.123994216e-07
5.128508315e-07
5.132605231e-07
5.136344095e-07
5.13977279e-07
5.14293057e-07
5.145849974e-07
5.148558268e-07
5.151078515e-07
5.153430416e-07
5.15563096e-07
5.157694937e-07
5.15963535e-07
5.161463753e-07
5.16319051e-07
5.164825024e-07
5.16637591e-07
5.167851116e-07
5.169258043e-07
5.170603582e-07
5.171894485e-07
5.173161667e-07
5.173128357e-07
5.067673658e-07
1.361837744e-06
1.826573567e-05
4.577768521e-07
4.846513256e-07
4.9357067e-07
4.984380165e-07
5.016217277e-07
5.039143365e-07
5.056675872e-07
5.070648857e-07
5.082125657e-07
5.091771186e-07
5.100025537e-07
5.107193205e-07
5.113492503e-07
5.119084595e-07
5.124091403e-07
5.128607096e-07
5.132705722e-07
5.136446416e-07
5.139877068e-07
5.143036935e-07
5.145958563e-07
5.148669218e-07
5.151191964e-07
5.1535465e-07
5.15574981e-07
5.157816675e-07
5.159760085e-07
5.161591574e-07
5.16332148e-07
5.164959174e-07
5.166513229e-07
5.167991545e-07
5.169401471e-07
5.170749836e-07
5.172043336e-07
5.173313106e-07
5.173272162e-07
5.067416546e-07
1.362546181e-06
1.826627457e-05
4.577843953e-07
4.84659552e-07
4.935791376e-07
4.984466361e-07
5.016304672e-07
5.03923183e-07
5.05676537e-07
5.070739401e-07
5.082217285e-07
5.091863958e-07
5.100119526e-07
5.107288494e-07
5.113589183e-07
5.119182765e-07
5.124191166e-07
5.12870856e-07
5.132808999e-07
5.136551622e-07
5.139984316e-07
5.143146343e-07
5.146070242e-07
5.148783275e-07
5.151308501e-07
5.153665606e-07
5.15587156e-07
5.157941125e-07
5.159887268e-07
5.161721493e-07
5.163454111e-07
5.165094453e-07
5.166651054e-07
5.168131777e-07
5.169543933e-07
5.170894315e-07
5.172189598e-07
5.173461162e-07
5.173412314e-07
5.067174651e-07
1.363216328e-06
1.826674484e-05
4.577920938e-07
4.846679357e-07
4.93587765e-07
4.984554187e-07
5.016393733e-07
5.039322009e-07
5.056856637e-07
5.070831777e-07
5.082310818e-07
5.091958715e-07
5.100215587e-07
5.107385949e-07
5.113688128e-07
5.119283302e-07
5.124293402e-07
5.128812603e-07
5.132914959e-07
5.136659606e-07
5.140094431e-07
5.143258687e-07
5.146184907e-07
5.148900342e-07
5.151428033e-07
5.153787647e-07
5.155996131e-07
5.158068218e-07
5.160016843e-07
5.161853471e-07
5.163588378e-07
5.165230853e-07
5.166789398e-07
5.168271845e-07
5.16968548e-07
5.171037089e-07
5.172333354e-07
5.173605931e-07
5.17354876e-07
5.066941002e-07
1.363861237e-06
1.826714576e-05
4.577999394e-07
4.846764675e-07
4.93596543e-07
4.984643547e-07
5.016484365e-07
5.039413804e-07
5.056949575e-07
5.070925886e-07
5.082406155e-07
5.092055355e-07
5.100313617e-07
5.107485466e-07
5.113789233e-07
5.119386102e-07
5.124398007e-07
5.128919121e-07
5.133023496e-07
5.136770267e-07
5.140207312e-07
5.143373874e-07
5.146302471e-07
5.149020336e-07
5.151550488e-07
5.153912564e-07
5.156123479e-07
5.158197926e-07
5.160148798e-07
5.161987516e-07
5.163724309e-07
5.165368424e-07
5.166928326e-07
5.168411826e-07
5.169826199e-07
5.171178245e-07
5.172474685e-07
5.173747489e-07
5.173681405e-07
5.06670863e-07
1.364493847e-06
1.826747535e-05
4.578079229e-07
4.846851376e-07
4.936054615e-07
4.98473434e-07
5.016576465e-07
5.039507111e-07
5.057044078e-07
5.071021622e-07
5.082503189e-07
5.09215377e-07
5.100413506e-07
5.107586934e-07
5.113892388e-07
5.119491055e-07
5.124504869e-07
5.129028004e-07
5.133134506e-07
5.136883504e-07
5.140322864e-07
5.143491815e-07
5.146422855e-07
5.149143192e-07
5.151675815e-07
5.154040324e-07
5.15625359e-07
5.158330257e-07
5.160283168e-07
5.162123685e-07
5.163861984e-07
5.165507265e-07
5.167067956e-07
5.168551845e-07
5.169966212e-07
5.171317891e-07
5.172613676e-07
5.173885895e-07
5.173810109e-07
5.066470301e-07
1.365127493e-06
1.826773023e-05
4.578160343e-07
4.846939354e-07
4.936145095e-07
4.984826454e-07
5.01666992e-07
5.039601817e-07
5.057140031e-07
5.071118869e-07
5.082601802e-07
5.092253841e-07
5.100515138e-07
5.107690235e-07
5.113997475e-07
5.119598044e-07
5.124613877e-07
5.129139143e-07
5.133247884e-07
5.136999218e-07
5.140440995e-07
5.143612429e-07
5.146545991e-07
5.149268859e-07
5.151803982e-07
5.154170917e-07
5.156386481e-07
5.158465258e-07
5.160420027e-07
5.162262084e-07
5.164001538e-07
5.165647535e-07
5.167208457e-07
5.168692075e-07
5.170105682e-07
5.171456164e-07
5.172750421e-07
5.174021192e-07
5.173934676e-07
5.066218199e-07
1.365776516e-06
1.826790549e-05
4.578242629e-07
4.847028495e-07
4.936236754e-07
4.984919771e-07
5.016764611e-07
5.0396978e-07
5.057237312e-07
5.071217503e-07
5.082701871e-07
5.092355444e-07
5.100618387e-07
5.107795248e-07
5.114104373e-07
5.119706949e-07
5.124724911e-07
5.129252425e-07
5.133363521e-07
5.137117308e-07
5.140561617e-07
5.143735641e-07
5.146671822e-07
5.149397298e-07
5.151934977e-07
5.154304358e-07
5.156522199e-07
5.15860301e-07
5.160559494e-07
5.162402866e-07
5.164143158e-07
5.165789447e-07
5.167350059e-07
5.168832746e-07
5.170244821e-07
5.171593236e-07
5.172885032e-07
5.174153415e-07
5.174054853e-07
5.065943557e-07
1.366457198e-06
1.826799441e-05
4.578325972e-07
4.847118674e-07
4.936329466e-07
4.985014163e-07
5.016860408e-07
5.03979493e-07
5.05733579e-07
5.071317393e-07
5.082803265e-07
5.09245845e-07
5.100723123e-07
5.10790184e-07
5.114212952e-07
5.119817644e-07
5.12483785e-07
5.129367731e-07
5.133481306e-07
5.137237673e-07
5.140684641e-07
5.143861378e-07
5.146800294e-07
5.149528481e-07
5.1520688e-07
5.154440683e-07
5.156660818e-07
5.15874363e-07
5.160701729e-07
5.162546238e-07
5.164287091e-07
5.165933278e-07
5.167493059e-07
5.168974156e-07
5.170383901e-07
5.171729326e-07
5.173017646e-07
5.174282597e-07
5.174170322e-07
5.065636205e-07
1.36718878e-06
1.826798803e-05
4.57841025e-07
4.847209761e-07
4.936423098e-07
4.985109495e-07
5.016957175e-07
5.039893069e-07
5.057435327e-07
5.071418401e-07
5.082905844e-07
5.092562717e-07
5.100829207e-07
5.108009875e-07
5.114323075e-07
5.119929995e-07
5.124952564e-07
5.129484938e-07
5.133601125e-07
5.137360208e-07
5.140809977e-07
5.143989567e-07
5.146931357e-07
5.149662388e-07
5.152205463e-07
5.154579944e-07
5.156802434e-07
5.158887265e-07
5.160846936e-07
5.162692455e-07
5.164433641e-07
5.166079374e-07
5.167637831e-07
5.16911668e-07
5.170523267e-07
5.171864719e-07
5.173148441e-07
5.174408782e-07
5.174280693e-07
5.065283979e-07
1.367994814e-06
1.826787464e-05
4.578495333e-07
4.847301617e-07
4.936517508e-07
4.985205624e-07
5.017054767e-07
5.039992072e-07
5.057535777e-07
5.071520379e-07
5.08300946e-07
5.092668099e-07
5.100936492e-07
5.108119206e-07
5.1144346e-07
5.120043861e-07
5.125068916e-07
5.129603915e-07
5.133722855e-07
5.137484805e-07
5.140937531e-07
5.144120137e-07
5.147064964e-07
5.149799002e-07
5.152344989e-07
5.154722209e-07
5.15694717e-07
5.159034094e-07
5.160995355e-07
5.162841826e-07
5.164583179e-07
5.16622816e-07
5.167784832e-07
5.169260785e-07
5.170663362e-07
5.17199978e-07
5.173277658e-07
5.174532046e-07
5.1743855e-07
5.06487193e-07
1.368905073e-06
1.826763898e-05
4.578581084e-07
4.847394098e-07
4.936612548e-07
4.985302399e-07
5.017153034e-07
5.040091786e-07
5.057636984e-07
5.071623172e-07
5.083113959e-07
5.09277444e-07
5.101044823e-07
5.108229679e-07
5.114547373e-07
5.120159093e-07
5.125186762e-07
5.129724525e-07
5.133846369e-07
5.137611346e-07
5.141067203e-07
5.144253009e-07
5.147201065e-07
5.149938308e-07
5.152487405e-07
5.154867557e-07
5.157095163e-07
5.159184324e-07
5.161147271e-07
5.162994711e-07
5.164736144e-07
5.166380145e-07
5.167934622e-07
5.169407052e-07
5.170804744e-07
5.172134987e-07
5.173405629e-07
5.174652518e-07
5.174484193e-07
5.064381213e-07
1.369958697e-06
1.826726123e-05
4.57866736e-07
4.847487049e-07
4.936708063e-07
4.985399661e-07
5.017251813e-07
5.040192048e-07
5.057738786e-07
5.071726617e-07
5.083219177e-07
5.092881576e-07
5.101154036e-07
5.108341133e-07
5.114661235e-07
5.120275533e-07
5.125305947e-07
5.12984662e-07
5.133971528e-07
5.137739706e-07
5.141198884e-07
5.144388097e-07
5.147339604e-07
5.150080286e-07
5.152632738e-07
5.15501607e-07
5.157246567e-07
5.159338188e-07
5.161303002e-07
5.163151525e-07
5.164893049e-07
5.166535933e-07
5.16808788e-07
5.1695562e-07
5.170948119e-07
5.172270967e-07
5.173532823e-07
5.174770426e-07
5.174576152e-07
5.063787522e-07
1.371209819e-06
1.826671532e-05
4.578754012e-07
4.847580313e-07
4.936803889e-07
4.985497245e-07
5.017350937e-07
5.040292689e-07
5.057841013e-07
5.071830542e-07
5.083324942e-07
5.092989336e-07
5.10126396e-07
5.108453396e-07
5.114776015e-07
5.120393014e-07
5.12542631e-07
5.129970043e-07
5.134098183e-07
5.13786975e-07
5.141332456e-07
5.144525305e-07
5.147480516e-07
5.150224912e-07
5.152781014e-07
5.155167836e-07
5.157401542e-07
5.159495937e-07
5.161462902e-07
5.163312737e-07
5.165054486e-07
5.166696233e-07
5.168245417e-07
5.169709111e-07
5.171094379e-07
5.172408543e-07
5.173659891e-07
5.174886153e-07
5.174660695e-07
5.063058844e-07
1.372737732e-06
1.826596631e-05
4.578840884e-07
4.847673722e-07
4.936899858e-07
4.985594979e-07
5.017450231e-07
5.040393532e-07
5.057943485e-07
5.071934767e-07
5.083431074e-07
5.09309754e-07
5.101374414e-07
5.108566288e-07
5.114891536e-07
5.120511358e-07
5.125547674e-07
5.130094624e-07
5.134226173e-07
5.138001328e-07
5.141467785e-07
5.144664523e-07
5.147623719e-07
5.150372144e-07
5.152932243e-07
5.155322933e-07
5.157560249e-07
5.15965783e-07
5.161627351e-07
5.163478864e-07
5.16522112e-07
5.166861867e-07
5.168408198e-07
5.169866858e-07
5.171244647e-07
5.172548792e-07
5.173787737e-07
5.175000313e-07
5.1747371e-07
5.062152268e-07
1.374666035e-06
1.826496601e-05
4.578927818e-07
4.847767108e-07
4.936995793e-07
4.985692682e-07
5.017549511e-07
5.040494392e-07
5.058046016e-07
5.072039106e-07
5.083537384e-07
5.093206e-07
5.101485211e-07
5.108679621e-07
5.115007607e-07
5.120630377e-07
5.125669856e-07
5.130220181e-07
5.13435532e-07
5.138134273e-07
5.141604721e-07
5.14480562e-07
5.147769113e-07
5.150521924e-07
5.153086421e-07
5.155481425e-07
5.15772284e-07
5.159824132e-07
5.16179675e-07
5.163650468e-07
5.165393694e-07
5.167033774e-07
5.16857736e-07
5.170030743e-07
5.171400329e-07
5.172693113e-07
5.173917607e-07
5.175113853e-07
5.174804649e-07
5.061009655e-07
1.377195285e-06
1.82636457e-05
4.579014651e-07
4.847860295e-07
4.937091513e-07
4.985790169e-07
5.017648588e-07
5.040595074e-07
5.058148411e-07
5.072143362e-07
5.083643675e-07
5.093314518e-07
5.101596153e-07
5.108793195e-07
5.11512403e-07
5.120749872e-07
5.125792654e-07
5.130346517e-07
5.134485434e-07
5.138268402e-07
5.141743091e-07
5.144948445e-07
5.147916576e-07
5.150674165e-07
5.153243516e-07
5.155643353e-07
5.15788945e-07
5.159995095e-07
5.161971505e-07
5.16382814e-07
5.165573021e-07
5.167213019e-07
5.168754225e-07
5.170202333e-07
5.171563176e-07
5.172843322e-07
5.174051203e-07
5.175228182e-07
5.17486267e-07
5.059552647e-07
1.380713326e-06
1.826191043e-05
4.579101216e-07
4.847953106e-07
4.937186834e-07
4.985887247e-07
5.017747262e-07
5.040695377e-07
5.058250465e-07
5.07224733e-07
5.083749744e-07
5.093422889e-07
5.101707035e-07
5.108906805e-07
5.115240597e-07
5.120869632e-07
5.125915857e-07
5.130473421e-07
5.134616304e-07
5.138403508e-07
5.1418827e-07
5.145092817e-07
5.148065951e-07
5.150828749e-07
5.153403459e-07
5.155808718e-07
5.158060176e-07
5.160170949e-07
5.16215201e-07
5.164012487e-07
5.165759971e-07
5.167400778e-07
5.168940315e-07
5.170383501e-07
5.171735358e-07
5.173001758e-07