/*--------------------------------*- C++ -*----------------------------------*\
| =========                 |                                                 |
| \\      /  F ield         | OpenFOAM: The Open Source CFD Toolbox           |
|  \\    /   O peration     | Version:  v1912                                 |
|   \\  /    A nd           | Website:  www.openfoam.com                      |
|    \\/     M anipulation  |                                                 |
\*---------------------------------------------------------------------------*/
FoamFile
{
    version     2.0;
    format      ascii;
    class       volScalarField;
    location    "0.1";
    object      nut.gas;
}
// * * * * * * * * * * * * * * * * * * * * * * * * * * * * * * * * * * * * * //

dimensions      [0 2 -1 0 0 0 0];


internalField   nonuniform List<scalar> 
4800
(
9.706507019e-09
1.723331832e-08
2.242448843e-08
2.66462273e-08
3.029787171e-08
3.356243204e-08
3.654195894e-08
3.930026487e-08
4.188040571e-08
4.431305901e-08
4.662099857e-08
4.882168196e-08
5.09288412e-08
5.295350925e-08
5.490470923e-08
5.678993264e-08
5.861548136e-08
6.038672569e-08
6.210828056e-08
6.37841455e-08
6.54178184e-08
6.701238404e-08
6.857058369e-08
7.009487513e-08
7.158748695e-08
7.305046267e-08
7.448571362e-08
7.58950786e-08
7.72804021e-08
7.864366025e-08
7.998717433e-08
8.131401051e-08
8.262880565e-08
8.39396151e-08
8.526249708e-08
8.663451739e-08
8.815755161e-08
9.032089586e-08
8.430945549e-08
3.462605889e-07
1.575649729e-08
2.809088509e-08
3.660118788e-08
4.352225958e-08
4.950830731e-08
5.48593199e-08
5.974262893e-08
6.42628866e-08
6.849071296e-08
7.247642927e-08
7.62573942e-08
7.986224688e-08
8.331351552e-08
8.662930104e-08
8.982440765e-08
9.291112727e-08
9.589979888e-08
9.879920648e-08
1.016168968e-07
1.043594151e-07
1.070324797e-07
1.096411215e-07
1.121897951e-07
1.146824711e-07
1.171227042e-07
1.195137012e-07
1.218583692e-07
1.241593642e-07
1.26419136e-07
1.286399759e-07
1.308240824e-07
1.329736663e-07
1.350911609e-07
1.371797162e-07
1.392445687e-07
1.412974334e-07
1.433730795e-07
1.456957505e-07
1.851848379e-07
8.610384743e-07
1.531566889e-08
2.729440849e-08
3.555948199e-08
4.22814023e-08
4.809544061e-08
5.329288527e-08
5.803620866e-08
6.24270208e-08
6.65338868e-08
7.040566198e-08
7.407861509e-08
7.758054819e-08
8.093332936e-08
8.415452724e-08
8.725850854e-08
9.02571995e-08
9.316062914e-08
9.597733306e-08
9.871464254e-08
1.013789059e-07
1.039756647e-07
1.065097903e-07
1.089855915e-07
1.11406898e-07
1.137771336e-07
1.160993686e-07
1.183763674e-07
1.206106245e-07
1.228043962e-07
1.249597262e-07
1.270784669e-07
1.291623086e-07
1.312128262e-07
1.332316131e-07
1.352206914e-07
1.371839152e-07
1.3913218e-07
1.410941413e-07
1.924443058e-07
8.570865143e-07
1.534061205e-08
2.733933031e-08
3.561814537e-08
4.235120689e-08
4.817485577e-08
5.338087196e-08
5.81320025e-08
6.253002947e-08
6.664363438e-08
7.052175572e-08
7.420072426e-08
7.770838985e-08
8.106665852e-08
8.429312973e-08
8.740219583e-08
9.040580481e-08
9.33140045e-08
9.613533934e-08
9.88771476e-08
1.01545787e-07
1.041468079e-07
1.066850892e-07
1.091649458e-07
1.115902141e-07
1.139643222e-07
1.162903453e-07
1.185710522e-07
1.208089431e-07
1.2300628e-07
1.251651132e-07
1.272873046e-07
1.293745543e-07
1.314284456e-07
1.334505484e-07
1.354427027e-07
1.374078396e-07
1.393523305e-07
1.412527388e-07
1.989824519e-07
8.587093505e-07
1.533918869e-08
2.733677552e-08
3.561481121e-08
4.234723922e-08
4.817033959e-08
5.337586418e-08
5.812654422e-08
6.252415177e-08
6.663736144e-08
7.051510666e-08
7.419371433e-08
7.770103113e-08
8.105896043e-08
8.428509937e-08
8.739383814e-08
9.03971227e-08
9.330499882e-08
9.612600968e-08
9.886749227e-08
1.015358024e-07
1.041364881e-07
1.066744258e-07
1.091539269e-07
1.115788243e-07
1.13952541e-07
1.162781462e-07
1.18558401e-07
1.207957947e-07
1.229925753e-07
1.251507731e-07
1.272722209e-07
1.293585738e-07
1.314113373e-07
1.334319269e-07
1.354218193e-07
1.373829417e-07
1.393183456e-07
1.411631263e-07
2.033396343e-07
8.599333161e-07
1.533933321e-08
2.733704471e-08
3.56151656e-08
4.234766163e-08
4.817081924e-08
5.337639311e-08
5.812711597e-08
6.252476072e-08
6.663800243e-08
7.051577482e-08
7.419440485e-08
7.770173917e-08
8.105968098e-08
8.42858272e-08
8.739456766e-08
9.039784783e-08
9.330571293e-08
9.612670535e-08
9.886816111e-08
1.015364349e-07
1.041370734e-07
1.066749512e-07
1.091543779e-07
1.115791837e-07
1.139527885e-07
1.162782577e-07
1.185583473e-07
1.207955407e-07
1.229920782e-07
1.251499804e-07
1.272710675e-07
1.293569766e-07
1.314091839e-07
1.334290449e-07
1.354178853e-07
1.373772056e-07
1.393084402e-07
1.410658127e-07
2.091291618e-07
8.600602645e-07
1.533938663e-08
2.733714978e-08
3.561530564e-08
4.2347829e-08
4.817100876e-08
5.337660065e-08
5.81273379e-08
6.252499364e-08
6.6638243e-08
7.051601964e-08
7.419465044e-08
7.770198182e-08
8.105991672e-08
8.428605174e-08
8.73947763e-08
9.039803539e-08
9.330587364e-08
9.612683278e-08
9.8868248e-08
1.01536473e-07
1.041370534e-07
1.066748625e-07
1.091542081e-07
1.115789186e-07
1.139524118e-07
1.162777505e-07
1.185576879e-07
1.207947042e-07
1.229910366e-07
1.251487026e-07
1.272695203e-07
1.29355126e-07
1.314069953e-07
1.334264772e-07
1.354148594e-07
1.373735039e-07
1.393026683e-07
1.408853535e-07
2.159990834e-07
8.601799448e-07
1.53394472e-08
2.733726764e-08
3.561546235e-08
4.234801626e-08
4.817122104e-08
5.33768336e-08
5.812758776e-08
6.252525695e-08
6.66385164e-08
7.051629977e-08
7.419493386e-08
7.770226495e-08
8.106019576e-08
8.428632261e-08
8.739503459e-08
9.039827629e-08
9.330609185e-08
9.612702245e-08
9.886840265e-08
1.015365854e-07
1.041371155e-07
1.066748651e-07
1.091541412e-07
1.11578771e-07
1.13952171e-07
1.162774027e-07
1.185572186e-07
1.207940984e-07
1.2299028e-07
1.251477838e-07
1.272684337e-07
1.293538774e-07
1.314056087e-07
1.334250006e-07
1.354133614e-07
1.373720512e-07
1.392998843e-07
1.406268141e-07
2.20323789e-07
8.6031159e-07
1.53395093e-08
2.733738816e-08
3.561562253e-08
4.234820771e-08
4.817143821e-08
5.337707217e-08
5.812784402e-08
6.252552751e-08
6.663879801e-08
7.05165892e-08
7.419522782e-08
7.770256006e-08
8.106048844e-08
8.428660906e-08
8.739531076e-08
9.039853779e-08
9.330633391e-08
9.612723989e-08
9.886858979e-08
1.01536736e-07
1.041372229e-07
1.06674922e-07
1.091541396e-07
1.115787025e-07
1.139520268e-07
1.162771744e-07
1.18556898e-07
1.207936797e-07
1.229897607e-07
1.251471684e-07
1.272677383e-07
1.293531365e-07
1.31404884e-07
1.33424391e-07
1.354130078e-07
1.373721486e-07
1.392985793e-07
1.404343114e-07
2.232044153e-07
8.604335708e-07
1.533957347e-08
2.73375123e-08
3.561578741e-08
4.234840483e-08
4.817166197e-08
5.337731827e-08
5.81281088e-08
6.252580763e-08
6.663909033e-08
7.051689063e-08
7.419553523e-08
7.770287025e-08
8.10607981e-08
8.428691469e-08
8.739560865e-08
9.0398824e-08
9.330660422e-08
9.612748979e-08
9.886881445e-08
1.015369303e-07
1.041373814e-07
1.06675039e-07
1.091542094e-07
1.115787194e-07
1.139519857e-07
1.162770711e-07
1.185567306e-07
1.207934496e-07
1.229894755e-07
1.251468449e-07
1.272674079e-07
1.293528518e-07
1.314047277e-07
1.334244844e-07
1.35413515e-07
1.373733027e-07
1.392987015e-07
1.402936887e-07
2.252201676e-07
8.605425304e-07
1.533963986e-08
2.733764033e-08
3.561595736e-08
4.234860806e-08
4.817189285e-08
5.33775725e-08
5.812838275e-08
6.252609806e-08
6.663939421e-08
7.051720498e-08
7.419585711e-08
7.770319667e-08
8.1061126e-08
8.428724087e-08
8.739592978e-08
9.039913658e-08
9.33069046e-08
9.612777412e-08
9.886907875e-08
1.015371705e-07
1.041375933e-07
1.066752185e-07
1.091543528e-07
1.115788236e-07
1.139520488e-07
1.162770929e-07
1.185567141e-07
1.207934025e-07
1.229894128e-07
1.251467922e-07
1.272674061e-07
1.293529635e-07
1.314050435e-07
1.33425129e-07
1.354146482e-07
1.373751405e-07
1.392998092e-07
1.401887392e-07
2.266783317e-07
8.606387225e-07
1.533970866e-08
2.733777255e-08
3.561613279e-08
4.234881789e-08
4.817213139e-08
5.337783546e-08
5.812866657e-08
6.252639957e-08
6.663971047e-08
7.051753319e-08
7.419619448e-08
7.770354043e-08
8.106147334e-08
8.428758891e-08
8.739627556e-08
9.039947707e-08
9.330723667e-08
9.61280946e-08
9.886938447e-08
1.015374583e-07
1.041378603e-07
1.066754622e-07
1.091545712e-07
1.115790159e-07
1.139522157e-07
1.162772377e-07
1.185568438e-07
1.207935296e-07
1.229895574e-07
1.251469855e-07
1.272676943e-07
1.293534123e-07
1.31405743e-07
1.33426196e-07
1.354162243e-07
1.373774078e-07
1.393015423e-07
1.40108932e-07
2.27765564e-07
8.607233979e-07
1.533978001e-08
2.733790923e-08
3.561631403e-08
4.234903472e-08
4.817237808e-08
5.337810772e-08
5.812896088e-08
6.252671285e-08
6.664003988e-08
7.051787607e-08
7.419654824e-08
7.770390251e-08
8.106184117e-08
8.428795994e-08
8.73966472e-08
9.039984672e-08
9.330760174e-08
9.612845257e-08
9.886973291e-08
1.015377951e-07
1.041381835e-07
1.066757707e-07
1.091548647e-07
1.115792955e-07
1.139524844e-07
1.162775016e-07
1.18557113e-07
1.207938197e-07
1.22989892e-07
1.251473986e-07
1.272682336e-07
1.293541425e-07
1.314067481e-07
1.334275796e-07
1.354181049e-07
1.373799308e-07
1.393036601e-07
1.400472163e-07
2.285967731e-07
8.6079802e-07
1.533985406e-08
2.733805062e-08
3.561650141e-08
4.234925896e-08
4.817263336e-08
5.337838977e-08
5.812926623e-08
6.25270385e-08
6.664038312e-08
7.051823436e-08
7.419691918e-08
7.770428374e-08
8.10622304e-08
8.42883549e-08
8.739704567e-08
9.040024653e-08
9.330800081e-08
9.612884896e-08
9.887012494e-08
1.015381814e-07
1.041385633e-07
1.06676144e-07
1.091552326e-07
1.115796607e-07
1.139528518e-07
1.162778793e-07
1.185575131e-07
1.207942602e-07
1.229903981e-07
1.251480053e-07
1.272689875e-07
1.293551041e-07
1.314079927e-07
1.334291956e-07
1.354201879e-07
1.373825929e-07
1.393060025e-07
1.399988021e-07
2.292479577e-07
8.608640055e-07
1.533993093e-08
2.733819693e-08
3.561669521e-08
4.234949093e-08
4.817289763e-08
5.337868206e-08
5.812958312e-08
6.252737706e-08
6.664074075e-08
7.051860869e-08
7.419730795e-08
7.770468483e-08
8.106264176e-08
8.428877457e-08
8.739747175e-08
9.040067726e-08
9.330843459e-08
9.61292844e-08
9.8870561e-08
1.015386175e-07
1.041389995e-07
1.066765813e-07
1.091556733e-07
1.115801088e-07
1.139533137e-07
1.162783644e-07
1.18558035e-07
1.207948379e-07
1.229910575e-07
1.251487804e-07
1.272699223e-07
1.293562535e-07
1.314094221e-07
1.334309783e-07
1.35422399e-07
1.373853169e-07
1.39308467e-07
1.399602959e-07
2.297656504e-07
8.609226034e-07
1.534001073e-08
2.733834836e-08
3.561689569e-08
4.234973093e-08
4.817317124e-08
5.337898497e-08
5.812991196e-08
6.252772899e-08
6.664111328e-08
7.051899957e-08
7.419771513e-08
7.770510637e-08
8.106307585e-08
8.428921951e-08
8.7397926e-08
9.040113943e-08
9.330890352e-08
9.61297592e-08
9.887104119e-08
1.015391032e-07
1.041394915e-07
1.066770815e-07
1.091561848e-07
1.115806367e-07
1.139538653e-07
1.1627895e-07
1.185586691e-07
1.207955397e-07
1.229918522e-07
1.251497004e-07
1.272710081e-07
1.293575534e-07
1.314109917e-07
1.334328772e-07
1.354246848e-07
1.373880523e-07
1.393109869e-07
1.39929312e-07
2.301833208e-07
8.60974874e-07
1.534009356e-08
2.733850507e-08
3.561710306e-08
4.234997923e-08
4.817345447e-08
5.337929884e-08
5.813025311e-08
6.252809468e-08
6.664150112e-08
7.051940745e-08
7.419814115e-08
7.77055488e-08
8.106353311e-08
8.428969017e-08
8.739840881e-08
9.040163335e-08
9.330940777e-08
9.613027336e-08
9.887156529e-08
1.015396378e-07
1.041400383e-07
1.066776428e-07
1.091567646e-07
1.115812405e-07
1.139545013e-07
1.162796291e-07
1.185594057e-07
1.207963526e-07
1.229927656e-07
1.251507443e-07
1.272722185e-07
1.293589725e-07
1.314126658e-07
1.334348539e-07
1.354270076e-07
1.373907671e-07
1.393135189e-07
1.399041259e-07
2.305248388e-07
8.610217075e-07
1.534017949e-08
2.73386672e-08
3.561731749e-08
4.235023603e-08
4.817374755e-08
5.337962391e-08
5.813060686e-08
6.252847442e-08
6.664190459e-08
7.051983266e-08
7.419858635e-08
7.770601245e-08
8.106401384e-08
8.429018681e-08
8.739892039e-08
9.040215912e-08
9.330994732e-08
9.613082666e-08
9.887213281e-08
1.015402207e-07
1.041406384e-07
1.066782631e-07
1.091574096e-07
1.115819164e-07
1.139552163e-07
1.162803942e-07
1.185602352e-07
1.207972646e-07
1.229937825e-07
1.251518931e-07
1.272735312e-07
1.293604849e-07
1.314144162e-07
1.334368797e-07
1.35429341e-07
1.373934413e-07
1.393160358e-07
1.398834673e-07
2.308074129e-07
8.610638478e-07
1.53402686e-08
2.733883484e-08
3.561753913e-08
4.235050149e-08
4.817405068e-08
5.337996039e-08
5.813097343e-08
6.252886846e-08
6.664232391e-08
7.052027542e-08
7.419905096e-08
7.770649753e-08
8.106451823e-08
8.429070956e-08
8.739946077e-08
9.040271669e-08
9.331052196e-08
9.613141866e-08
9.8872743e-08
1.015408505e-07
1.041412902e-07
1.066789404e-07
1.09158117e-07
1.115826602e-07
1.139560048e-07
1.162812383e-07
1.185611486e-07
1.207982642e-07
1.229948888e-07
1.251531304e-07
1.272749271e-07
1.293620695e-07
1.314162206e-07
1.334389332e-07
1.354316669e-07
1.373960635e-07
1.393185204e-07
1.398663849e-07
2.310436974e-07
8.611018819e-07
1.534036093e-08
2.733900808e-08
3.561776807e-08
4.235077574e-08
4.817436398e-08
5.338030844e-08
5.813135297e-08
6.252927694e-08
6.664275925e-08
7.052073589e-08
7.41995351e-08
7.770700414e-08
8.106504633e-08
8.429125839e-08
8.740002985e-08
9.040330581e-08
9.331113127e-08
9.613204874e-08
9.887339495e-08
1.015415261e-07
1.04141992e-07
1.06679672e-07
1.091588833e-07
1.115834676e-07
1.139568615e-07
1.162821547e-07
1.185621375e-07
1.207993412e-07
1.229960723e-07
1.251544417e-07
1.272763899e-07
1.29363709e-07
1.314180618e-07
1.334409984e-07
1.35433973e-07
1.373986272e-07
1.393209627e-07
1.398521559e-07
2.312431632e-07
8.61136232e-07
1.53404565e-08
2.733918697e-08
3.561800438e-08
4.235105884e-08
4.817468754e-08
5.338066811e-08
5.813174555e-08
6.252969993e-08
6.664321067e-08
7.052121411e-08
7.42000388e-08
7.770753228e-08
8.106559807e-08
8.429183319e-08
8.74006274e-08
9.040392613e-08
9.331177472e-08
9.613271613e-08
9.88740876e-08
1.01542246e-07
1.041427419e-07
1.066804556e-07
1.091597054e-07
1.115843346e-07
1.139577813e-07
1.16283137e-07
1.185631941e-07
1.208004862e-07
1.229973222e-07
1.251558149e-07
1.272779065e-07
1.293653896e-07
1.314199264e-07
1.33443064e-07
1.354362511e-07
1.374011297e-07
1.393233567e-07
1.398402232e-07
2.314130408e-07
8.611675123e-07
1.534055535e-08
2.733937153e-08
3.561824807e-08
4.235135082e-08
4.817502137e-08
5.338103945e-08
5.81321512e-08
6.253013746e-08
6.664367817e-08
7.052171006e-08
7.420056201e-08
7.770808182e-08
8.10661733e-08
8.42924337e-08
8.740125307e-08
9.040457716e-08
9.331245166e-08
9.613341995e-08
9.887481979e-08
1.015430087e-07
1.041435378e-07
1.066812886e-07
1.091605802e-07
1.115852571e-07
1.139587591e-07
1.162841791e-07
1.185643113e-07
1.208016911e-07
1.22998629e-07
1.251572395e-07
1.272794657e-07
1.293671002e-07
1.314218041e-07
1.334451215e-07
1.354384962e-07
1.374035705e-07
1.393256996e-07
1.398301513e-07
2.315589354e-07
8.611959591e-07
1.534065745e-08
2.733956175e-08
3.561849915e-08
4.235165167e-08
4.817536546e-08
5.338142241e-08
5.813256987e-08
6.253058946e-08
6.664416166e-08
7.052222363e-08
7.420110458e-08
7.770865259e-08
8.106677175e-08
8.429305958e-08
8.740190642e-08
9.040525831e-08
9.331316131e-08
9.613415922e-08
9.887559025e-08
1.015438125e-07
1.041443779e-07
1.066821685e-07
1.091615046e-07
1.115862316e-07
1.139597905e-07
1.162852757e-07
1.185654827e-07
1.208029485e-07
1.229999847e-07
1.251587068e-07
1.272810585e-07
1.293688321e-07
1.314236872e-07
1.334471651e-07
1.354407052e-07
1.374059505e-07
1.393279902e-07
1.398215953e-07
2.316852757e-07
8.612218726e-07
1.534076281e-08
2.733975759e-08
3.561875755e-08
4.235196133e-08
4.817571974e-08
5.338181691e-08
5.813300146e-08
6.253105581e-08
6.6644661e-08
7.052275464e-08
7.420166627e-08
7.77092443e-08
8.106739308e-08
8.429371041e-08
8.740258691e-08
9.040596893e-08
9.331390287e-08
9.61349329e-08
9.887639772e-08
1.015446559e-07
1.041452601e-07
1.066830929e-07
1.091624756e-07
1.115872544e-07
1.139608714e-07
1.16286422e-07
1.185667029e-07
1.208042521e-07
1.230013823e-07
1.251602095e-07
1.272826776e-07
1.293705784e-07
1.314255698e-07
1.334491907e-07
1.354428766e-07
1.374082712e-07
1.393302282e-07
1.398142781e-07
2.31795612e-07
8.612454908e-07
1.534087138e-08
2.7339959e-08
3.56190232e-08
4.235227968e-08
4.817608408e-08
5.338222281e-08
5.813344581e-08
6.25315363e-08
6.664517597e-08
7.052330282e-08
7.42022468e-08
7.77098566e-08
8.106803687e-08
8.429438568e-08
8.740329393e-08
9.040670828e-08
9.331467543e-08
9.613573994e-08
9.88772409e-08
1.015455374e-07
1.041461825e-07
1.066840596e-07
1.091634905e-07
1.115883223e-07
1.139619979e-07
1.162876136e-07
1.185679669e-07
1.208055966e-07
1.230028161e-07
1.251617417e-07
1.272843171e-07
1.293723336e-07
1.314274477e-07
1.334511955e-07
1.354450096e-07
1.374105349e-07
1.393324142e-07
1.398079739e-07
2.318928278e-07
8.612670048e-07
1.534098312e-08
2.734016588e-08
3.561929598e-08
4.235260658e-08
4.817645831e-08
5.338263992e-08
5.813390268e-08
6.253203071e-08
6.664570627e-08
7.052386787e-08
7.420284579e-08
7.771048907e-08
8.106870264e-08
8.429508483e-08
8.740402683e-08
9.040747558e-08
9.331547809e-08
9.613657923e-08
9.887811849e-08
1.015464553e-07
1.041471433e-07
1.066850664e-07
1.091645469e-07
1.115894325e-07
1.139631669e-07
1.162888468e-07
1.185692706e-07
1.208069775e-07
1.230042812e-07
1.251632985e-07
1.272859725e-07
1.293740938e-07
1.314293175e-07
1.334531778e-07
1.354471045e-07
1.374127438e-07
1.39334549e-07
1.398024964e-07
2.319792903e-07
8.612865695e-07
1.534109797e-08
2.734037812e-08
3.561957574e-08
4.235294186e-08
4.817684223e-08
5.338306799e-08
5.813437182e-08
6.253253872e-08
6.664625158e-08
7.052444939e-08
7.420346282e-08
7.771114122e-08
8.106938983e-08
8.429580724e-08
8.74047849e-08
9.040827002e-08
9.331630989e-08
9.613744969e-08
9.887902923e-08
1.015474083e-07
1.041481409e-07
1.066861114e-07
1.091656425e-07
1.115905824e-07
1.139643752e-07
1.162901183e-07
1.185706103e-07
1.208083909e-07
1.23005774e-07
1.25164876e-07
1.272876401e-07
1.293758559e-07
1.314311773e-07
1.334551367e-07
1.354491616e-07
1.374149003e-07
1.393366335e-07
1.397976887e-07
2.320569575e-07
8.613043074e-07
1.534121584e-08
2.734059557e-08
3.561986229e-08
4.235328529e-08
4.817723557e-08
5.338350673e-08
5.81348529e-08
6.253305997e-08
6.66468115e-08
7.052504695e-08
7.420409741e-08
7.771181252e-08
8.107009785e-08
8.429655223e-08
8.740556737e-08
9.040909075e-08
9.33171699e-08
9.613835025e-08
9.88799719e-08
1.01548395e-07
1.041491737e-07
1.066871927e-07
1.091667752e-07
1.115917698e-07
1.139656206e-07
1.162914255e-07
1.185719834e-07
1.208098339e-07
1.230072912e-07
1.251664714e-07
1.272893173e-07
1.293776177e-07
1.314330255e-07
1.334570716e-07
1.354511818e-07
1.374170064e-07
1.393386683e-07
1.397934161e-07
2.321274855e-07
8.613203115e-07
1.534133667e-08
2.734081808e-08
3.562015543e-08
4.235363662e-08
4.817763804e-08
5.338395582e-08
5.813534555e-08
6.253359405e-08
6.664738557e-08
7.052566006e-08
7.420474899e-08
7.771250238e-08
8.107082604e-08
8.429731909e-08
8.740637348e-08
9.04099369e-08
9.331805714e-08
9.613927984e-08
9.888094533e-08
1.01549414e-07
1.041502402e-07
1.066883089e-07
1.091679434e-07
1.115929926e-07
1.139669009e-07
1.162927662e-07
1.185733874e-07
1.208113042e-07
1.230088306e-07
1.251680826e-07
1.272910023e-07
1.293793779e-07
1.314348614e-07
1.334589827e-07
1.35453166e-07
1.374190643e-07
1.39340654e-07
1.397895603e-07
2.321923106e-07
8.613346473e-07
1.534146033e-08
2.734104546e-08
3.562045491e-08
4.235399556e-08
4.817804931e-08
5.338441488e-08
5.813584934e-08
6.25341405e-08
6.664797329e-08
7.052628815e-08
7.4205417e-08
7.771321015e-08
8.107157371e-08
8.429810707e-08
8.74072024e-08
9.041080759e-08
9.331897066e-08
9.614023743e-08
9.888194838e-08
1.015504641e-07
1.041513391e-07
1.066894584e-07
1.091691456e-07
1.115942495e-07
1.139682145e-07
1.162941386e-07
1.185748206e-07
1.208128002e-07
1.230103908e-07
1.251697081e-07
1.272926939e-07
1.293811357e-07
1.314366848e-07
1.334608701e-07
1.354551153e-07
1.374210757e-07
1.393425907e-07
1.397860141e-07
2.322526967e-07
8.613473533e-07
1.534158673e-08
2.734127751e-08
3.562076045e-08
4.235436178e-08
4.8178469e-08
5.338488347e-08
5.813636381e-08
6.253469882e-08
6.66485741e-08
7.052693065e-08
7.420610077e-08
7.771393513e-08
8.107234011e-08
8.429891536e-08
8.740805327e-08
9.041170193e-08
9.331990951e-08
9.614122201e-08
9.888298001e-08
1.015515442e-07
1.041524692e-07
1.066906401e-07
1.091703805e-07
1.11595539e-07
1.139695602e-07
1.162955416e-07
1.18576282e-07
1.208143206e-07
1.230119706e-07
1.251713473e-07
1.272943918e-07
1.293828911e-07
1.314384959e-07
1.334627347e-07
1.354570305e-07
1.374230421e-07
1.393444782e-07
1.397826777e-07
2.323098046e-07
8.613584411e-07
1.534171573e-08
2.734151398e-08
3.562107177e-08
4.235473492e-08
4.817889668e-08
5.338536114e-08
5.813688845e-08
6.253526843e-08
6.664918739e-08
7.052758688e-08
7.42067996e-08
7.771467657e-08
8.107312446e-08
8.429974315e-08
8.740892524e-08
9.041261899e-08
9.332087274e-08
9.614223258e-08
9.88840392e-08
1.015526533e-07
1.041536296e-07
1.06691853e-07
1.091716471e-07
1.115968603e-07
1.13970937e-07
1.162969744e-07
1.185777708e-07
1.208158651e-07
1.2301357e-07
1.251730001e-07
1.27296096e-07
1.293846444e-07
1.314402954e-07
1.334645772e-07
1.35458913e-07
1.374249648e-07
1.393463157e-07
1.39779455e-07
2.323647485e-07
8.613678937e-07
1.534184719e-08
2.734175463e-08
3.562138851e-08
4.235511457e-08
4.817933191e-08
5.338584737e-08
5.813742268e-08
6.253584872e-08
6.664981251e-08
7.052825615e-08
7.420751275e-08
7.77154337e-08
8.107392592e-08
8.430058956e-08
8.74098174e-08
9.041355785e-08
9.332185938e-08
9.614326819e-08
9.888512498e-08
1.015537905e-07
1.041548193e-07
1.066930962e-07
1.091729446e-07
1.115982128e-07
1.139723444e-07
1.162984366e-07
1.18579287e-07
1.208174338e-07
1.230151891e-07
1.25174667e-07
1.272978074e-07
1.293863965e-07
1.314420843e-07
1.334663988e-07
1.354607636e-07
1.374268449e-07
1.393481021e-07
1.397762498e-07
2.32418632e-07
8.613756644e-07
1.534198096e-08
2.734199918e-08
3.562171032e-08
4.235550031e-08
4.817977418e-08
5.33863416e-08
5.813796591e-08
6.253643904e-08
6.665044875e-08
7.05289377e-08
7.420823942e-08
7.771620566e-08
8.107474362e-08
8.430145367e-08
8.74107288e-08
9.041451756e-08
9.33228685e-08
9.614432789e-08
9.888623645e-08
1.015549548e-07
1.041560375e-07
1.066943691e-07
1.091742726e-07
1.115995959e-07
1.139737824e-07
1.162999284e-07
1.185808309e-07
1.208190273e-07
1.23016829e-07
1.251763493e-07
1.272995274e-07
1.293881491e-07
1.314438642e-07
1.334682009e-07
1.354625836e-07
1.374286831e-07
1.393498353e-07
1.397729623e-07
2.324725912e-07
8.613816735e-07
1.534211687e-08
2.734224733e-08
3.56220368e-08
4.235589166e-08
4.818022296e-08
5.338684323e-08
5.813851746e-08
6.253703866e-08
6.665109534e-08
7.052963071e-08
7.420897876e-08
7.771699157e-08
8.107557664e-08
8.430233455e-08
8.741165849e-08
9.041549714e-08
9.332389912e-08
9.614541076e-08
9.888737271e-08
1.015561455e-07
1.041572835e-07
1.06695671e-07
1.091756307e-07
1.116010098e-07
1.139752511e-07
1.163014502e-07
1.185824033e-07
1.208206469e-07
1.230184913e-07
1.251780489e-07
1.273012581e-07
1.293899044e-07
1.314456371e-07
1.334699852e-07
1.354643742e-07
1.374304799e-07
1.393515128e-07
1.397694848e-07
2.325278469e-07
8.613858056e-07
1.534225475e-08
2.734249876e-08
3.562236753e-08
4.235628811e-08
4.818067766e-08
5.338735162e-08
5.813907665e-08
6.253764684e-08
6.665175147e-08
7.053033433e-08
7.420972986e-08
7.771779048e-08
8.107642399e-08
8.43032312e-08
8.741260545e-08
9.041649558e-08
9.332495028e-08
9.614651586e-08
9.888853292e-08
1.015573619e-07
1.041585568e-07
1.066970017e-07
1.091770187e-07
1.116024545e-07
1.139767511e-07
1.163030031e-07
1.185840057e-07
1.208222944e-07
1.230201782e-07
1.251797683e-07
1.273030024e-07
1.293916651e-07
1.314474059e-07
1.334717541e-07
1.354661368e-07
1.37432236e-07
1.393531312e-07
1.397656962e-07
2.325857839e-07
8.61387902e-07
1.534239439e-08
2.734275311e-08
3.562270205e-08
4.235668913e-08
4.818113767e-08
5.338786609e-08
5.813964271e-08
6.253826275e-08
6.665241627e-08
7.053104765e-08
7.421049177e-08
7.771860141e-08
8.107728467e-08
8.430414257e-08
8.741356865e-08
9.041751186e-08
9.332602094e-08
9.614764223e-08
9.888971621e-08
1.015586031e-07
1.041598568e-07
1.066983608e-07
1.091784366e-07
1.116039303e-07
1.13978283e-07
1.163045882e-07
1.185856399e-07
1.208239721e-07
1.230218925e-07
1.25181511e-07
1.273047639e-07
1.29393435e-07
1.314491738e-07
1.334735102e-07
1.354678732e-07
1.374339516e-07
1.393546862e-07
1.397614564e-07
2.326480371e-07
8.613877516e-07
1.534253561e-08
2.734301002e-08
3.56230399e-08
4.235709413e-08
4.818160234e-08
5.338838589e-08
5.814021485e-08
6.253888555e-08
6.665308885e-08
7.05317697e-08
7.421126347e-08
7.77194233e-08
8.107815757e-08
8.430506756e-08
8.741454697e-08
9.041854488e-08
9.332711008e-08
9.61487889e-08
9.889092173e-08
1.015598686e-07
1.04161183e-07
1.06699748e-07
1.091798846e-07
1.11605438e-07
1.139798481e-07
1.163062074e-07
1.185873082e-07
1.208256831e-07
1.23023638e-07
1.251832811e-07
1.273065471e-07
1.293952189e-07
1.314509454e-07
1.334752573e-07
1.354695858e-07
1.374356274e-07
1.393561725e-07
1.397565973e-07
2.327166065e-07
8.613850782e-07
1.534267816e-08
2.73432691e-08
3.562338054e-08
4.235750252e-08
4.818207096e-08
5.338891027e-08
5.814079223e-08
6.253951432e-08
6.665376822e-08
7.053249947e-08
7.421204391e-08
7.772025504e-08
8.107904158e-08
8.430600502e-08
8.741553925e-08
9.04195935e-08
9.332821658e-08
9.614995484e-08
9.889214856e-08
1.015611575e-07
1.041625349e-07
1.067011633e-07
1.09181363e-07
1.116069781e-07
1.139814476e-07
1.163078625e-07
1.185890134e-07
1.20827431e-07
1.230254191e-07
1.251850838e-07
1.273083578e-07
1.293970225e-07
1.314527262e-07
1.334770001e-07
1.354712777e-07
1.374372643e-07
1.393575838e-07
1.397509128e-07
2.32794018e-07
8.613795222e-07
1.534282184e-08
2.734352993e-08
3.562372346e-08
4.235791365e-08
4.818254282e-08
5.33894384e-08
5.814137396e-08
6.254014812e-08
6.665445336e-08
7.053323586e-08
7.421283194e-08
7.772109546e-08
8.107993547e-08
8.430695371e-08
8.741654426e-08
9.042065649e-08
9.332933928e-08
9.615113896e-08
9.889339575e-08
1.015624692e-07
1.041639121e-07
1.067026065e-07
1.091828719e-07
1.116085516e-07
1.139830831e-07
1.163095559e-07
1.185907588e-07
1.2082922e-07
1.23027241e-07
1.251869251e-07
1.273102029e-07
1.293988532e-07
1.314545234e-07
1.334787448e-07
1.354729532e-07
1.374388642e-07
1.393589128e-07
1.397441426e-07
2.328835896e-07
8.613706161e-07
1.534296639e-08
2.73437921e-08
3.562406809e-08
4.235832685e-08
4.818301713e-08
5.338996943e-08
5.81419591e-08
6.254078592e-08
6.665514322e-08
7.053397776e-08
7.421362638e-08
7.772194334e-08
8.108083798e-08
8.430791234e-08
8.741756069e-08
9.042173256e-08
9.333047692e-08
9.61523401e-08
9.889466225e-08
1.015638027e-07
1.041653139e-07
1.067040773e-07
1.091844117e-07
1.116101593e-07
1.139847563e-07
1.163112902e-07
1.185925479e-07
1.20831055e-07
1.230291098e-07
1.251888126e-07
1.273120906e-07
1.294007199e-07
1.314563458e-07
1.334804994e-07
1.354746186e-07
1.3744043e-07
1.393601511e-07
1.397359514e-07
2.329899065e-07
8.61357745e-07
1.534311158e-08
2.734405514e-08
3.562441383e-08
4.235874141e-08
4.81834931e-08
5.339050247e-08
5.814254668e-08
6.254142668e-08
6.665583665e-08
7.053472397e-08
7.421442598e-08
7.772279736e-08
8.108174776e-08
8.430887952e-08
8.741858714e-08
9.042282031e-08
9.333162814e-08
9.615355697e-08
9.889594692e-08
1.015651571e-07
1.041667397e-07
1.067055755e-07
1.091859827e-07
1.116118022e-07
1.139864689e-07
1.163130684e-07
1.18594385e-07
1.208329413e-07
1.230310325e-07
1.251907547e-07
1.27314031e-07
1.294026337e-07
1.314582049e-07
1.334822746e-07
1.354762823e-07
1.374419669e-07
1.393612896e-07
1.39725897e-07
2.331196784e-07
8.613400853e-07
1.534325713e-08
2.734431859e-08
3.562476009e-08
4.235915659e-08
4.818396987e-08
5.339103657e-08
5.814313567e-08
6.254206929e-08
6.665653248e-08
7.053547325e-08
7.421522944e-08
7.772365615e-08
8.108266339e-08
8.43098538e-08
8.741962212e-08
9.042391826e-08
9.333279148e-08
9.615478818e-08
9.889724847e-08
1.015665313e-07
1.041681886e-07
1.067071008e-07
1.091875849e-07
1.116134812e-07
1.139882227e-07
1.163148932e-07
1.185962742e-07
1.208348852e-07
1.230330171e-07
1.251927613e-07
1.273160359e-07
1.294046079e-07
1.31460115e-07
1.334840843e-07
1.354779562e-07
1.374434829e-07
1.393623184e-07
1.39713387e-07
2.332833542e-07
8.613165002e-07
1.534340278e-08
2.734458197e-08
3.562510622e-08
4.235957165e-08
4.818444658e-08
5.339157075e-08
5.814372498e-08
6.254271259e-08
6.665722947e-08
7.053622429e-08
7.421603537e-08
7.772451829e-08
8.108358338e-08
8.431083363e-08
8.742066405e-08
9.042502479e-08
9.333396534e-08
9.615603217e-08
9.889856545e-08
1.015679241e-07
1.041696597e-07
1.067086523e-07
1.091892184e-07
1.116151968e-07
1.139900194e-07
1.163167676e-07
1.185982203e-07
1.208368931e-07
1.230350724e-07
1.25194844e-07
1.273181194e-07
1.29406659e-07
1.314620938e-07
1.334859465e-07
1.354796565e-07
1.374449906e-07
1.39363228e-07
1.396976183e-07
2.334978647e-07
8.612853689e-07
1.534354826e-08
2.734484478e-08
3.562545158e-08
4.235998578e-08
4.81849223e-08
5.339210399e-08
5.814431351e-08
6.254335537e-08
6.665792633e-08
7.053697572e-08
7.421684236e-08
7.772538226e-08
8.108450615e-08
8.431181736e-08
8.742171124e-08
9.042613819e-08
9.333514795e-08
9.615728721e-08
9.889989621e-08
1.015693339e-07
1.041711517e-07
1.067102294e-07
1.091908827e-07
1.116169497e-07
1.139918605e-07
1.163186946e-07
1.186002279e-07
1.20838972e-07
1.230372081e-07
1.251970155e-07
1.273202978e-07
1.294088064e-07
1.314641636e-07
1.334878846e-07
1.354814056e-07
1.374465088e-07
1.393640093e-07
1.396775081e-07
2.337959093e-07
8.612444515e-07
1.53436933e-08
2.734510654e-08
3.562579549e-08
4.236039818e-08
4.818539609e-08
5.339263521e-08
5.814490007e-08
6.254399637e-08
6.665862173e-08
7.053772613e-08
7.42176489e-08
7.772624648e-08
8.108543005e-08
8.431280327e-08
8.742276187e-08
9.042725657e-08
9.333633743e-08
9.615855139e-08
9.890123887e-08
1.01570759e-07
1.041726631e-07
1.067118307e-07
1.091925772e-07
1.116187397e-07
1.139937471e-07
1.163206767e-07
1.186023015e-07
1.208411289e-07
1.230394345e-07
1.251992901e-07
1.273225897e-07
1.294110737e-07
1.314663521e-07
1.334899289e-07