/*--------------------------------*- C++ -*----------------------------------*\
| =========                 |                                                 |
| \\      /  F ield         | OpenFOAM: The Open Source CFD Toolbox           |
|  \\    /   O peration     | Version:  v1912                                 |
|   \\  /    A nd           | Website:  www.openfoam.com                      |
|    \\/     M anipulation  |                                                 |
\*---------------------------------------------------------------------------*/
FoamFile
{
    version     2.0;
    format      ascii;
    class       volScalarField;
    location    "0.1";
    object      p;
}
// * * * * * * * * * * * * * * * * * * * * * * * * * * * * * * * * * * * * * //

dimensions      [1 -1 -2 0 0 0 0];


internalField   nonuniform List<scalar> 
4800
(
100998.5716
100998.5715
100998.5712
100998.5708
100998.5701
100998.5693
100998.5684
100998.5672
100998.5659
100998.5643
100998.5625
100998.5604
100998.558
100998.5554
100998.5524
100998.549
100998.5452
100998.541
100998.5362
100998.5309
100998.525
100998.5184
100998.511
100998.5026
100998.4933
100998.4828
100998.471
100998.4577
100998.4425
100998.4253
100998.4055
100998.3826
100998.356
100998.3244
100998.2864
100998.2396
100998.1799
100998.099
100997.9803
100997.7687
100983.8579
100983.8577
100983.8574
100983.857
100983.8564
100983.8556
100983.8546
100983.8535
100983.8521
100983.8506
100983.8487
100983.8467
100983.8444
100983.8417
100983.8387
100983.8354
100983.8316
100983.8274
100983.8227
100983.8175
100983.8116
100983.805
100983.7976
100983.7894
100983.7801
100983.7697
100983.758
100983.7448
100983.7299
100983.7128
100983.6933
100983.6708
100983.6447
100983.6139
100983.5771
100983.5322
100983.4761
100983.4036
100983.3061
100983.1796
100969.1442
100969.1441
100969.1438
100969.1434
100969.1428
100969.142
100969.141
100969.1399
100969.1386
100969.137
100969.1352
100969.1332
100969.1309
100969.1283
100969.1254
100969.1221
100969.1184
100969.1142
100969.1096
100969.1044
100969.0986
100969.0921
100969.0848
100969.0767
100969.0676
100969.0574
100969.0459
100969.033
100969.0184
100969.0018
100968.9828
100968.961
100968.9359
100968.9065
100968.8719
100968.8306
100968.7806
100968.7199
100968.6474
100968.5778
100954.4308
100954.4306
100954.4303
100954.4299
100954.4293
100954.4285
100954.4276
100954.4265
100954.4252
100954.4237
100954.4219
100954.42
100954.4177
100954.4151
100954.4123
100954.409
100954.4054
100954.4013
100954.3968
100954.3917
100954.386
100954.3797
100954.3726
100954.3647
100954.3558
100954.3459
100954.3347
100954.3222
100954.308
100954.292
100954.2739
100954.2532
100954.2294
100954.202
100954.1703
100954.1333
100954.0905
100954.0417
100953.9895
100953.9488
100939.7174
100939.7173
100939.717
100939.7166
100939.716
100939.7152
100939.7143
100939.7133
100939.712
100939.7105
100939.7088
100939.7069
100939.7047
100939.7022
100939.6994
100939.6963
100939.6927
100939.6888
100939.6844
100939.6795
100939.6739
100939.6678
100939.6609
100939.6533
100939.6447
100939.6351
100939.6244
100939.6123
100939.5988
100939.5836
100939.5664
100939.547
100939.5249
100939.4999
100939.4714
100939.4393
100939.4035
100939.3653
100939.328
100939.3038
100925.0042
100925.004
100925.0038
100925.0034
100925.0028
100925.0021
100925.0012
100925.0002
100924.999
100924.9975
100924.9959
100924.994
100924.9919
100924.9895
100924.9868
100924.9838
100924.9804
100924.9766
100924.9723
100924.9676
100924.9623
100924.9563
100924.9498
100924.9424
100924.9342
100924.925
100924.9148
100924.9034
100924.8906
100924.8763
100924.8603
100924.8423
100924.8222
100924.7997
100924.7747
100924.7473
100924.7181
100924.6886
100924.6622
100924.6489
100910.291
100910.2909
100910.2907
100910.2903
100910.2898
100910.2891
100910.2882
100910.2873
100910.2861
100910.2847
100910.2832
100910.2814
100910.2794
100910.2771
100910.2745
100910.2716
100910.2683
100910.2647
100910.2606
100910.2561
100910.251
100910.2454
100910.2391
100910.2321
100910.2243
100910.2156
100910.206
100910.1952
100910.1833
100910.17
100910.1552
100910.1389
100910.1208
100910.1009
100910.0793
100910.0564
100910.033
100910.0108
100909.9925
100909.9864
100895.5781
100895.5779
100895.5777
100895.5773
100895.5768
100895.5762
100895.5754
100895.5745
100895.5734
100895.5721
100895.5706
100895.5689
100895.567
100895.5648
100895.5624
100895.5596
100895.5565
100895.5531
100895.5492
100895.5449
100895.5401
100895.5348
100895.5288
100895.5222
100895.5149
100895.5068
100895.4978
100895.4878
100895.4768
100895.4646
100895.4512
100895.4365
100895.4204
100895.4032
100895.3849
100895.3661
100895.3477
100895.3312
100895.3192
100895.3178
100880.8652
100880.8651
100880.8648
100880.8645
100880.864
100880.8634
100880.8627
100880.8618
100880.8608
100880.8596
100880.8582
100880.8566
100880.8548
100880.8528
100880.8505
100880.8479
100880.845
100880.8417
100880.8381
100880.8341
100880.8296
100880.8246
100880.819
100880.8129
100880.8061
100880.7986
100880.7902
100880.7811
100880.771
100880.76
100880.7479
100880.7349
100880.7209
100880.7062
100880.6909
100880.6758
100880.6616
100880.6498
100880.6424
100880.6444
100866.1524
100866.1523
100866.1521
100866.1518
100866.1513
100866.1508
100866.1501
100866.1493
100866.1483
100866.1472
100866.1459
100866.1445
100866.1428
100866.1409
100866.1388
100866.1364
100866.1337
100866.1307
100866.1273
100866.1236
100866.1194
100866.1148
100866.1096
100866.104
100866.0977
100866.0908
100866.0832
100866.0749
100866.0658
100866.056
100866.0453
100866.0339
100866.022
100866.0095
100865.9971
100865.9851
100865.9746
100865.9665
100865.9627
100865.967
100851.4397
100851.4396
100851.4394
100851.4392
100851.4388
100851.4383
100851.4376
100851.4369
100851.436
100851.435
100851.4338
100851.4325
100851.431
100851.4292
100851.4273
100851.4251
100851.4226
100851.4199
100851.4168
100851.4133
100851.4095
100851.4053
100851.4006
100851.3954
100851.3897
100851.3835
100851.3767
100851.3692
100851.3612
100851.3525
100851.3432
100851.3334
100851.3233
100851.3131
100851.3032
100851.294
100851.2865
100851.2815
100851.2803
100851.2864
100836.7271
100836.7271
100836.7269
100836.7266
100836.7263
100836.7258
100836.7253
100836.7246
100836.7238
100836.7229
100836.7219
100836.7207
100836.7193
100836.7177
100836.716
100836.714
100836.7117
100836.7093
100836.7065
100836.7034
100836.6999
100836.6961
100836.6919
100836.6872
100836.6822
100836.6766
100836.6705
100836.664
100836.6569
100836.6494
100836.6415
100836.6333
100836.6249
100836.6167
100836.609
100836.6023
100836.5972
100836.5947
100836.5956
100836.6031
100822.0146
100822.0145
100822.0144
100822.0142
100822.0139
100822.0135
100822.013
100822.0124
100822.0117
100822.0109
100822.01
100822.009
100822.0077
100822.0064
100822.0048
100822.003
100822.0011
100821.9989
100821.9964
100821.9936
100821.9906
100821.9872
100821.9835
100821.9794
100821.9749
100821.97
100821.9647
100821.959
100821.953
100821.9466
100821.94
100821.9332
100821.9265
100821.9201
100821.9144
100821.9098
100821.9069
100821.9063
100821.9089
100821.9175
100807.3022
100807.3021
100807.302
100807.3018
100807.3015
100807.3012
100807.3008
100807.3003
100807.2997
100807.2991
100807.2983
100807.2974
100807.2963
100807.2951
100807.2938
100807.2923
100807.2906
100807.2886
100807.2865
100807.2841
100807.2814
100807.2785
100807.2753
100807.2717
100807.2679
100807.2637
100807.2592
100807.2544
100807.2493
100807.244
100807.2386
100807.2333
100807.2281
100807.2234
100807.2194
100807.2166
100807.2155
100807.2166
100807.2205
100807.2299
100792.5898
100792.5897
100792.5896
100792.5895
100792.5893
100792.589
100792.5887
100792.5883
100792.5878
100792.5873
100792.5866
100792.5859
100792.585
100792.584
100792.5829
100792.5816
100792.5802
100792.5786
100792.5768
100792.5747
100792.5725
100792.57
100792.5673
100792.5643
100792.5611
100792.5576
100792.5539
100792.5499
100792.5458
100792.5416
100792.5374
100792.5333
100792.5295
100792.5263
100792.5239
100792.5227
100792.5231
100792.5256
100792.5306
100792.5406
100777.8774
100777.8774
100777.8773
100777.8772
100777.8771
100777.8769
100777.8766
100777.8763
100777.876
100777.8755
100777.875
100777.8745
100777.8738
100777.873
100777.8721
100777.8711
100777.8699
100777.8686
100777.8672
100777.8655
100777.8637
100777.8617
100777.8595
100777.8571
100777.8545
100777.8517
100777.8487
100777.8456
100777.8424
100777.8392
100777.8361
100777.8332
100777.8308
100777.8289
100777.8279
100777.8281
100777.8298
100777.8333
100777.8392
100777.8498
100763.1651
100763.1651
100763.165
100763.165
100763.1649
100763.1648
100763.1646
100763.1644
100763.1642
100763.1639
100763.1635
100763.1631
100763.1626
100763.1621
100763.1614
100763.1607
100763.1598
100763.1588
100763.1577
100763.1565
100763.1551
100763.1535
100763.1518
100763.15
100763.148
100763.1459
100763.1437
100763.1414
100763.1391
100763.1369
100763.1348
100763.133
100763.1317
100763.1311
100763.1313
100763.1327
100763.1355
100763.14
100763.1467
100763.1577
100748.4528
100748.4528
100748.4528
100748.4528
100748.4527
100748.4527
100748.4526
100748.4525
100748.4524
100748.4522
100748.4521
100748.4518
100748.4515
100748.4512
100748.4508
100748.4503
100748.4497
100748.4491
100748.4483
100748.4475
100748.4465
100748.4454
100748.4443
100748.443
100748.4416
100748.4402
100748.4387
100748.4372
100748.4358
100748.4345
100748.4334
100748.4327
100748.4324
100748.4329
100748.4342
100748.4366
100748.4404
100748.4457
100748.453
100748.4644
100733.7405
100733.7405
100733.7405
100733.7406
100733.7406
100733.7406
100733.7406
100733.7406
100733.7407
100733.7406
100733.7406
100733.7406
100733.7405
100733.7404
100733.7402
100733.74
100733.7397
100733.7394
100733.739
100733.7386
100733.738
100733.7374
100733.7368
100733.736
100733.7353
100733.7345
100733.7337
100733.733
100733.7324
100733.732
100733.7318
100733.732
100733.7328
100733.7342
100733.7365
100733.7399
100733.7445
100733.7506
100733.7584
100733.7701
100719.0282
100719.0282
100719.0283
100719.0283
100719.0284
100719.0285
100719.0286
100719.0288
100719.0289
100719.029
100719.0292
100719.0293
100719.0295
100719.0296
100719.0297
100719.0297
100719.0298
100719.0298
100719.0298
100719.0297
100719.0296
100719.0295
100719.0293
100719.0291
100719.029
100719.0288
100719.0288
100719.0288
100719.0289
100719.0293
100719.03
100719.0312
100719.0328
100719.0352
100719.0384
100719.0425
100719.0479
100719.0545
100719.0628
100719.0748
100704.3159
100704.3159
100704.316
100704.3161
100704.3163
100704.3164
100704.3167
100704.3169
100704.3172
100704.3174
100704.3178
100704.3181
100704.3184
100704.3188
100704.3191
100704.3195
100704.3198
100704.3202
100704.3205
100704.3208
100704.3212
100704.3215
100704.3219
100704.3223
100704.3227
100704.3232
100704.3237
100704.3245
100704.3254
100704.3266
100704.3281
100704.33
100704.3325
100704.3357
100704.3397
100704.3446
100704.3506
100704.3578
100704.3664
100704.3786
100689.6036
100689.6036
100689.6037
100689.6039
100689.6041
100689.6043
100689.6046
100689.605
100689.6054
100689.6058
100689.6063
100689.6068
100689.6074
100689.6079
100689.6086
100689.6092
100689.6098
100689.6105
100689.6112
100689.612
100689.6128
100689.6136
100689.6144
100689.6153
100689.6163
100689.6174
100689.6186
100689.6201
100689.6217
100689.6236
100689.6259
100689.6286
100689.6319
100689.6358
100689.6405
100689.6461
100689.6526
100689.6603
100689.6693
100689.6817
100674.8911
100674.8912
100674.8913
100674.8915
100674.8918
100674.8922
100674.8926
100674.893
100674.8936
100674.8941
100674.8948
100674.8955
100674.8963
100674.8971
100674.898
100674.8989
100674.8999
100674.9009
100674.902
100674.9031
100674.9043
100674.9056
100674.9069
100674.9083
100674.9099
100674.9116
100674.9135
100674.9155
100674.9178
100674.9205
100674.9235
100674.9269
100674.9309
100674.9355
100674.9408
100674.947
100674.9541
100674.9621
100674.9714
100674.984
100660.1787
100660.1788
100660.1789
100660.1792
100660.1795
100660.1799
100660.1804
100660.181
100660.1817
100660.1824
100660.1832
100660.1841
100660.1851
100660.1862
100660.1873
100660.1885
100660.1898
100660.1912
100660.1926
100660.1941
100660.1958
100660.1975
100660.1993
100660.2013
100660.2034
100660.2057
100660.2081
100660.2108
100660.2138
100660.2171
100660.2208
100660.2249
100660.2296
100660.2348
100660.2407
100660.2474
100660.255
100660.2634
100660.273
100660.2857
100645.4661
100645.4662
100645.4664
100645.4667
100645.4671
100645.4676
100645.4682
100645.4689
100645.4697
100645.4706
100645.4716
100645.4727
100645.4739
100645.4752
100645.4766
100645.4781
100645.4797
100645.4814
100645.4832
100645.4851
100645.4872
100645.4893
100645.4916
100645.4941
100645.4968
100645.4996
100645.5026
100645.506
100645.5096
100645.5135
100645.5178
100645.5226
100645.5279
100645.5337
100645.5402
100645.5474
100645.5553
100645.5641
100645.5739
100645.5868
100630.7535
100630.7536
100630.7538
100630.7542
100630.7546
100630.7552
100630.7559
100630.7567
100630.7577
100630.7587
100630.7599
100630.7612
100630.7626
100630.7641
100630.7658
100630.7676
100630.7695
100630.7715
100630.7737
100630.776
100630.7784
100630.7811
100630.7838
100630.7868
100630.79
100630.7934
100630.797
100630.8009
100630.8051
100630.8097
100630.8146
100630.82
100630.8258
100630.8322
100630.8392
100630.8469
100630.8552
100630.8643
100630.8743
100630.8874
100616.0407
100616.0409
100616.0411
100616.0415
100616.042
100616.0427
100616.0435
100616.0444
100616.0455
100616.0467
100616.0481
100616.0496
100616.0512
100616.0529
100616.0549
100616.0569
100616.0591
100616.0615
100616.064
100616.0667
100616.0696
100616.0727
100616.0759
100616.0794
100616.083
100616.087
100616.0912
100616.0956
100616.1004
100616.1056
100616.1111
100616.117
100616.1235
100616.1304
100616.1379
100616.1459
100616.1547
100616.164
100616.1743
100616.1874
100601.3279
100601.328
100601.3283
100601.3287
100601.3293
100601.3301
100601.331
100601.332
100601.3332
100601.3346
100601.3361
100601.3378
100601.3396
100601.3416
100601.3438
100601.3461
100601.3487
100601.3514
100601.3542
100601.3573
100601.3606
100601.3641
100601.3678
100601.3717
100601.3759
100601.3804
100601.3851
100601.3901
100601.3955
100601.4012
100601.4073
100601.4138
100601.4208
100601.4282
100601.4361
100601.4446
100601.4537
100601.4633
100601.4737
100601.487
100586.6149
100586.615
100586.6153
100586.6158
100586.6165
100586.6173
100586.6183
100586.6195
100586.6208
100586.6223
100586.624
100586.6259
100586.6279
100586.6302
100586.6326
100586.6352
100586.638
100586.6411
100586.6443
100586.6478
100586.6514
100586.6553
100586.6595
100586.6639
100586.6686
100586.6736
100586.6788
100586.6844
100586.6903
100586.6966
100586.7032
100586.7103
100586.7177
100586.7257
100586.734
100586.7429
100586.7523
100586.7622
100586.7728
100586.7862
100571.9017
100571.9019
100571.9022
100571.9028
100571.9035
100571.9044
100571.9055
100571.9068
100571.9082
100571.9099
100571.9118
100571.9138
100571.9161
100571.9185
100571.9212
100571.9241
100571.9272
100571.9306
100571.9342
100571.938
100571.9421
100571.9464
100571.951
100571.9559
100571.9611
100571.9665
100571.9723
100571.9784
100571.9849
100571.9917
100571.9989
100572.0064
100572.0144
100572.0228
100572.0316
100572.0408
100572.0505
100572.0607
100572.0714
100572.0849
100557.1884
100557.1885
100557.1889
100557.1895
100557.1903
100557.1913
100557.1925
100557.1939
100557.1955
100557.1973
100557.1993
100557.2016
100557.204
100557.2067
100557.2097
100557.2128
100557.2162
100557.2199
100557.2238
100557.228
100557.2325
100557.2372
100557.2423
100557.2476
100557.2533
100557.2592
100557.2656
100557.2722
100557.2792
100557.2865
100557.2942
100557.3023
100557.3108
100557.3196
100557.3288
100557.3384
100557.3485
100557.3588
100557.3698
100557.3834
100542.4749
100542.4751
100542.4755
100542.4761
100542.4769
100542.478
100542.4793
100542.4808
100542.4825
100542.4845
100542.4867
100542.4891
100542.4918
100542.4947
100542.4979
100542.5013
100542.505
100542.509
100542.5133
100542.5178
100542.5227
100542.5278
100542.5333
100542.5391
100542.5452
100542.5517
100542.5585
100542.5657
100542.5732
100542.5811
100542.5893
100542.5979
100542.6068
100542.6161
100542.6258
100542.6357
100542.6461
100542.6567
100542.6678
100542.6815
100527.7612
100527.7614
100527.7618
100527.7625
100527.7634
100527.7645
100527.7659
100527.7675
100527.7694
100527.7715
100527.7739
100527.7765
100527.7793
100527.7825
100527.7859
100527.7896
100527.7936
100527.7979
100527.8025
100527.8074
100527.8126
100527.8182
100527.8241
100527.8303
100527.8369
100527.8439
100527.8512
100527.8589
100527.8669
100527.8753
100527.8841
100527.8932
100527.9026
100527.9124
100527.9224
100527.9328
100527.9434
100527.9543
100527.9655
100527.9793
100513.0472
100513.0475
100513.0479
100513.0487
100513.0496
100513.0508
100513.0523
100513.054
100513.056
100513.0583
100513.0608
100513.0636
100513.0666
100513.07
100513.0737
100513.0776
100513.0819
100513.0865
100513.0914
100513.0967
100513.1023
100513.1082
100513.1146
100513.1212
100513.1283
100513.1358
100513.1436
100513.1518
100513.1603
100513.1693
100513.1786
100513.1882
100513.1981
100513.2083
100513.2188
100513.2295
100513.2404
100513.2516
100513.263
100513.2769
100498.3331
100498.3333
100498.3338
100498.3346
100498.3356
100498.3369
100498.3385
100498.3403
100498.3424
100498.3448
100498.3475
100498.3504
100498.3537
100498.3573
100498.3612
100498.3654
100498.3699
100498.3748
100498.3801
100498.3857
100498.3916
100498.398
100498.4047
100498.4119
100498.4194
100498.4273
100498.4357
100498.4444
100498.4535
100498.4629
100498.4727
100498.4829
100498.4933
100498.504
100498.5149
100498.526
100498.5373
100498.5487
100498.5603
100498.5743
100483.6187
100483.619
100483.6195
100483.6203
100483.6214
100483.6228
100483.6244
100483.6263
100483.6286
100483.6311
100483.6339
100483.637
100483.6405
100483.6443
100483.6484
100483.6528
100483.6577
100483.6628
100483.6684
100483.6743
100483.6807
100483.6874
100483.6946
100483.7022
100483.7102
100483.7186
100483.7274
100483.7366
100483.7463
100483.7563
100483.7666
100483.7773
100483.7882
100483.7994
100483.8108
100483.8223
100483.8339
100483.8456
100483.8574
100483.8715
100468.9041
100468.9044
100468.9049
100468.9058
100468.9069
100468.9083
100468.9101
100468.9121
100468.9144
100468.9171
100468.9201
100468.9234
100468.927
100468.931
100468.9353
100468.94
100468.9451
100468.9506
100468.9564
100468.9627
100468.9694
100468.9765
100468.9841
100468.9921
100469.0006
100469.0095
100469.0188
100469.0286
100469.0387
100469.0493
100469.0602
100469.0714
100469.0829
100469.0946
100469.1065
100469.1184
100469.1304
100469.1424
100469.1544
100469.1686
100454.1892
100454.1895
100454.1901
100454.191
100454.1922
100454.1937
100454.1955
100454.1976
100454.2
100454.2028
100454.2059
100454.2094
100454.2132
100454.2174
100454.2219
100454.2269
100454.2322
100454.238
100454.2441
100454.2507
100454.2578
100454.2653
100454.2733
100454.2817
100454.2906
100454.3
100454.3098
100454.3201
100454.3309
100454.342
100454.3535
100454.3653
100454.3773
100454.3896
100454.402
100454.4144
100454.4268
100454.439
100454.4512
100454.4656
100439.4741
100439.4743
100439.4749
100439.4759
100439.4771
100439.4787
100439.4806
100439.4828
100439.4854
100439.4883
100439.4915
100439.4951
100439.4991
100439.5035
100439.5082
100439.5134
100439.519
100439.525
100439.5315
100439.5384
100439.5458
100439.5537
100439.562
100439.5709
100439.5803
100439.5901
100439.6005
100439.6113
100439.6226
100439.6343
100439.6464
100439.6588
100439.6715
100439.6843
100439.6972
100439.7102
100439.723
100439.7356
100439.7481
100439.7626
100424.7586
100424.7589
100424.7595
100424.7605
100424.7618
100424.7634
100424.7654
100424.7677
100424.7704
100424.7734
100424.7768
100424.7805
100424.7847
100424.7892
100424.7942
100424.7995
100424.8054
100424.8117
100424.8184
100424.8256
100424.8334
100424.8416
100424.8504
100424.8597
100424.8695
100424.8799
100424.8907
100424.9021
100424.914
100424.9263
100424.939
100424.9521
100424.9654
100424.9788
100424.9924
100425.0058
100425.0192
100425.0322
100425.0449
100425.0596
100410.0429
100410.0432
100410.0438
100410.0448
100410.0462
100410.0479
100410.0499
100410.0523
100410.055
100410.0582
100410.0617
100410.0656
100410.0699
100410.0746
100410.0797
100410.0853
100410.0914
100410.0979
100410.105
100410.1125
100410.1206
100410.1292
100410.1383
100410.148
100410.1583
100410.1692
100410.1806
100410.1925
100410.205
100410.2179
100410.2313
100410.245
100410.259
100410.2731
100410.2873
100410.3014
100410.3153
100410.3288
100410.3419
100410.3568
100395.3268
100395.3271
100395.3278
100395.3288
100395.3302
100395.332
100395.3341
100395.3365
100395.3394
100395.3426
100395.3463
100395.3503
100395.3547
100395.3596
100395.365
100395.3708
100395.377
100395.3838
100395.3911
100395.3989
100395.4073
100395.4163
100395.4258
100395.4359
100395.4467
100395.458
100395.4699
100395.4825
100395.4955
100395.5091
100395.5232
100395.5376
100395.5523
100395.5672
100395.5821
100395.5969
100395.6114
100395.6254
100395.639
100395.6541
100380.6104
100380.6108
100380.6115
100380.6125
100380.614
100380.6158
100380.6179
100380.6205
100380.6234
100380.6267
100380.6305
100380.6346
100380.6392
100380.6443
100380.6498
100380.6558
100380.6623
100380.6693
100380.6768
100380.6849
100380.6936
100380.7029
100380.7128
100380.7234
100380.7345
100380.7464
100380.7588
100380.7719
100380.7857
100380.7999
100380.8147
100380.8299
100380.8454
100380.8611
100380.8768
100380.8924
100380.9076
100380.9222
100380.9363
100380.9517
100365.8937
100365.8941
100365.8948
100365.8959
100365.8974
100365.8992
100365.9014
100365.9041
100365.9071
100365.9105
100365.9143
100365.9186
100365.9233
100365.9285
100365.9342
100365.9404
100365.947
100365.9543
100365.9621
100365.9704
100365.9794
100365.9891
100365.9993
100366.0103
100366.0219
100366.0342
100366.0472
100366.0609
100366.0753
100366.0902
100366.1058
100366.1218
100366.1381
100366.1547
100366.1713
100366.1878
100366.2038
100366.2192
100366.2339
100366.2498
100351.1767
100351.177
100351.1778
100351.1789
100351.1804
100351.1823
100351.1846
100351.1873
100351.1904
100351.1939
100351.1978
100351.2022
100351.2071
100351.2124
100351.2182
100351.2245
100351.2314
100351.2388
100351.2469
100351.2555
100351.2648
100351.2747
100351.2853
100351.2967
100351.3087
100351.3215
100351.3351
100351.3494
100351.3644
100351.3801
100351.3964
100351.4133
100351.4306
100351.4481
100351.4657
100351.4831
100351.5001
100351.5164
100351.5319
100351.5486
100336.4593
100336.4597
100336.4604
100336.4616
100336.4631
100336.4651
100336.4674
100336.4701
100336.4733
100336.4769
100336.4809
100336.4854
100336.4904
100336.4958
100336.5018
100336.5082
100336.5153
100336.5229
100336.5311
100336.54
100336.5496
100336.5598
100336.5708
100336.5825
100336.595
100336.6082
100336.6223
100336.6372
100336.6529
100336.6694
100336.6865
100336.7043
100336.7226
100336.7412
100336.76
100336.7785
100336.7966
100336.8139
100336.8303
100336.8484
100321.7416
100321.7419
100321.7427
100321.7439
100321.7455
100321.7474
100321.7498
100321.7526
100321.7559
100321.7595
100321.7636
100321.7682
100321.7732
100321.7788
100321.7849
100321.7915
100321.7987
100321.8065
100321.8149
100321.824
100321.8338
100321.8443
100321.8556
100321.8677
100321.8806
100321.8943
100321.909
100321.9245
100321.9408
100321.9581
100321.9761
100321.9949
100322.0143
100322.0341
100322.054
100322.0738
100322.0931
100322.1116
100322.1291
100322.1487
100307.0235
100307.0238
100307.0246
100307.0258
100307.0274
100307.0295
100307.0319
100307.0347
100307.038
100307.0417
100307.0459
100307.0506
100307.0557
100307.0614
100307.0675
100307.0743
100307.0816
100307.0896
100307.0982
100307.1075
100307.1175
100307.1283
100307.1399
100307.1523
100307.1656
100307.1798
100307.1949
100307.211
100307.2281
100307.2461
100307.2651
100307.2849
100307.3055
100307.3266
100307.3479
100307.3691
100307.3898
100307.4095
100307.4281
100307.4491
100292.305
100292.3054
100292.3062
100292.3074
100292.309
100292.3111
100292.3136
100292.3165
100292.3198
100292.3236
100292.3278
100292.3325
100292.3377
100292.3435
100292.3498
100292.3566
100292.3641
100292.3722
100292.3809
100292.3904
100292.4006
100292.4117
100292.4235
100292.4362
100292.4499
100292.4645
100292.4802
100292.4969
100292.5146
100292.5335
100292.5534
100292.5743
100292.5961
100292.6186
100292.6415
100292.6644
100292.6867
100292.7078
100292.7273
100292.7475
100277.5861
100277.5865
100277.5873
100277.5886
100277.5903
100277.5924
100277.5949
100277.5978
100277.6012
100277.605
100277.6093
100277.6141
100277.6193
100277.6251
100277.6315
100277.6384
100277.646
100277.6542
100277.6631
100277.6727
100277.6832
100277.6944
100277.7065
100277.7195
100277.7335
100277.7485
100277.7647
100277.7819
100277.8004
100277.82
100277.8409
100277.863
100277.8861
100277.9102
100277.9349
100277.9597
100277.9839
100278.0067
100278.0272
100278.0469
100262.8669
100262.8673
100262.8681
100262.8694
100262.8711
100262.8732
100262.8758
100262.8788
100262.8822
100262.886
100262.8903
100262.8952
100262.9005
100262.9063
100262.9127
100262.9198
100262.9274
100262.9357
100262.9447
100262.9545
100262.9651
100262.9765
100262.9888
100263.0021
100263.0164
100263.0318
100263.0483
100263.0661
100263.0852
100263.1057
100263.1275
100263.1508
100263.1754
100263.2012
100263.2278
100263.2548
100263.2814
100263.3064
100263.3289
100263.3513
100248.1473
100248.1477
100248.1485
100248.1498
100248.1515
100248.1537
100248.1563
100248.1593
100248.1627
100248.1666
100248.171
100248.1758
100248.1812
100248.1871
100248.1935
100248.2006
100248.2083
100248.2167
100248.2258
100248.2356
100248.2463
100248.2579
100248.2704
100248.2839
100248.2984
100248.3142
100248.3311
100248.3494
100248.3692
100248.3904
100248.4132
100248.4377
100248.4638
100248.4914
100248.5203
100248.5499
100248.5793
100248.6072
100248.632
100248.6564
100233.4272
100233.4276
100233.4285
100233.4298
100233.4316
100233.4338
100233.4364
100233.4395
100233.4429
100233.4468
100233.4512
100233.456
100233.4614
100233.4673
100233.4738
100233.4809
100233.4886
100233.497
100233.5062
100233.5161
100233.5269
100233.5386
100233.5512
100233.5649
100233.5797
100233.5957
100233.613
100233.6318
100233.6521
100233.674
100233.6977
100233.7234
100233.751
100233.7806
100233.812
100233.8446
100233.8775
100233.909
100233.9367
100233.9617
100218.7068
100218.7072
100218.7081
100218.7094
100218.7113
100218.7135
100218.7161
100218.7192
100218.7227
100218.7266
100218.731
100218.7358
100218.7412
100218.7471
100218.7536
100218.7607
100218.7684
100218.7769
100218.786
100218.796
100218.8069
100218.8186
100218.8314
100218.8452
100218.8601
100218.8764
100218.894
100218.9131
100218.9338
100218.9564
100218.9811
100219.0078
100219.037
100219.0686
100219.1027
100219.1388
100219.176
100219.2123
100219.2442
100219.2709
100203.9859
100203.9863
100203.9872
100203.9886
100203.9905
100203.9928
100203.9955
100203.9986
100204.0021
100204.006
100204.0103
100204.0152
100204.0205
100204.0264
100204.0329
100204.0399
100204.0477
100204.0561
100204.0653
100204.0753
100204.0861
100204.0979
100204.1107
100204.1246
100204.1397
100204.1561
100204.1739
100204.1933
100204.2145
100204.2376
100204.263
100204.2908
100204.3214
100204.355
100204.392
100204.432
100204.4745
100204.5172
100204.5557
100204.5879
100189.2646
100189.265
100189.2659
100189.2674
100189.2693
100189.2717
100189.2744
100189.2775
100189.281
100189.2849
100189.2893
100189.2941
100189.2994
100189.3052
100189.3117
100189.3187
100189.3264
100189.3348
100189.3439
100189.3539
100189.3647
100189.3765
100189.3893
100189.4032
100189.4183
100189.4348
100189.4527
100189.4723
100189.4938
100189.5174
100189.5433
100189.572
100189.6039
100189.6395
100189.6793
100189.7236
100189.7723
100189.8237
100189.8724
100189.9151
100174.5429
100174.5432
100174.5442
100174.5457
100174.5478
100174.5502
100174.553
100174.5561
100174.5596
100174.5635
100174.5678
100174.5725
100174.5778
100174.5836
100174.5899
100174.5969
100174.6045
100174.6129
100174.6219
100174.6318
100174.6426
100174.6543
100174.6671
100174.6809
100174.696
100174.7125
100174.7305
100174.7502
100174.7718
100174.7956
100174.822
100174.8514
100174.8843
100174.9215
100174.9639
100175.0125
100175.0682
100175.1308
100175.1956
100175.2576
100159.8208
100159.821
100159.8219
100159.8235
100159.8257
100159.8282
100159.8311
100159.8342
100159.8376
100159.8415
100159.8457
100159.8504
100159.8555
100159.8612
100159.8675
100159.8743
100159.8819
100159.8901
100159.899
100159.9088
100159.9195
100159.9312
100159.9438
100159.9575
100159.9725
100159.9889
100160.0069
100160.0265
100160.048
100160.0719
100160.0986
100160.1283
100160.1618
100160.2002
100160.2448
100160.2972
100160.36
100160.4356
100160.5254
100160.626
100145.098
100145.0981
100145.0988
100145.1005
100145.1028
100145.1054
100145.1082
100145.1112
100145.1146
100145.1182
100145.1223
100145.1268
100145.1318
100145.1373
100145.1434
100145.1499
100145.1574
100145.1654
100145.1742
100145.1838
100145.1941
100145.2058
100145.2182
100145.2317
100145.2464
100145.2625
100145.2806
100145.2999
100145.3211
100145.3447
100145.3716
100145.4012
100145.4346
100145.4734
100145.5192
100145.5739
100145.642
100145.7301
100145.8649
100146.1075
100137.4394
100137.4382
100137.4386
100137.4396
100137.4408
100137.4421
100137.4434
100137.4449
100137.4465
100137.4483
100137.4502
100137.4524
100137.4549
100137.4576
100137.4606
100137.4637
100137.4675
100137.4714
100137.4757
100137.4805
100137.4855
100137.4914
100137.4975
100137.5042
100137.5115
100137.5194
100137.5285
100137.5381
100137.5486
100137.5603
100137.5738
100137.5886
100137.6054
100137.625
100137.6484
100137.6767
100137.7131
100137.7605
100137.8355
100138.0038
100137.1176
100137.1177
100137.1177
100137.1177
100137.1177
100137.1177
100137.1177
100137.1177
100137.1177
100137.1177
100137.1177
100137.1177
100137.1177
100137.1177
100137.1177
100137.1178
100137.1178
100137.1178
100137.1179
100137.1179
100137.1179
100137.118
100137.118
100137.1181
100137.1181
100137.1182
100137.1182
100137.1183
100137.1184
100137.1185
100137.1186
100137.1187
100137.1188
100137.119
100137.1192
100137.1195
100137.1198
100137.12
100137.1188
100137.1161
100137.0568
100137.0568
100137.0568
100137.0568
100137.0568
100137.0568
100137.0568
100137.0568