/*--------------------------------*- C++ -*----------------------------------*\
| =========                 |                                                 |
| \\      /  F ield         | OpenFOAM: The Open Source CFD Toolbox           |
|  \\    /   O peration     | Version:  v1912                                 |
|   \\  /    A nd           | Website:  www.openfoam.com                      |
|    \\/     M anipulation  |                                                 |
\*---------------------------------------------------------------------------*/
FoamFile
{
    version     2.0;
    format      ascii;
    class       volScalarField;
    location    "0.1";
    object      p_rgh_0;
}
// * * * * * * * * * * * * * * * * * * * * * * * * * * * * * * * * * * * * * //

dimensions      [1 -1 -2 0 0 0 0];


internalField   nonuniform List<scalar> 
4800
(
100998.5291
100998.5289
100998.5286
100998.5282
100998.5276
100998.5269
100998.526
100998.5249
100998.5236
100998.5221
100998.5204
100998.5184
100998.5162
100998.5137
100998.5108
100998.5076
100998.504
100998.5
100998.4954
100998.4904
100998.4847
100998.4783
100998.4712
100998.4633
100998.4543
100998.4442
100998.4329
100998.42
100998.4054
100998.3888
100998.3697
100998.3476
100998.3217
100998.2912
100998.2544
100998.209
100998.1509
100998.0722
100997.9564
100997.705
100991.173
100991.1728
100991.1726
100991.1721
100991.1716
100991.1708
100991.1699
100991.1688
100991.1675
100991.1661
100991.1644
100991.1624
100991.1602
100991.1577
100991.1548
100991.1517
100991.1481
100991.1441
100991.1396
100991.1346
100991.1289
100991.1226
100991.1156
100991.1076
100991.0988
100991.0888
100991.0775
100991.0648
100991.0504
100991.0339
100991.0151
100990.9934
100990.9681
100990.9382
100990.9026
100990.8591
100990.8046
100990.7341
100990.6387
100990.3147
100983.817
100983.8169
100983.8166
100983.8162
100983.8156
100983.8149
100983.814
100983.8129
100983.8117
100983.8102
100983.8085
100983.8066
100983.8044
100983.8019
100983.7991
100983.796
100983.7925
100983.7885
100983.7841
100983.7791
100983.7736
100983.7674
100983.7604
100983.7526
100983.7439
100983.7341
100983.7231
100983.7106
100983.6965
100983.6805
100983.6622
100983.6412
100983.6168
100983.5884
100983.5549
100983.5148
100983.4663
100983.4074
100983.3356
100982.9309
100976.4612
100976.4611
100976.4608
100976.4604
100976.4598
100976.4591
100976.4582
100976.4572
100976.456
100976.4545
100976.4529
100976.451
100976.4488
100976.4464
100976.4437
100976.4406
100976.4372
100976.4333
100976.429
100976.4241
100976.4187
100976.4126
100976.4058
100976.3982
100976.3897
100976.3802
100976.3695
100976.3574
100976.3438
100976.3283
100976.3108
100976.2908
100976.2678
100976.2413
100976.2106
100976.1749
100976.1334
100976.0861
100976.0329
100975.5199
100969.1055
100969.1054
100969.1051
100969.1047
100969.1042
100969.1035
100969.1026
100969.1016
100969.1004
100969.099
100969.0974
100969.0956
100969.0935
100969.0911
100969.0885
100969.0855
100969.0822
100969.0784
100969.0742
100969.0695
100969.0642
100969.0583
100969.0518
100969.0444
100969.0362
100969.027
100969.0167
100969.0051
100968.9921
100968.9774
100968.9608
100968.9421
100968.9208
100968.8966
100968.8691
100968.838
100968.8034
100968.7664
100968.7264
100968.0894
100961.7499
100961.7498
100961.7495
100961.7491
100961.7486
100961.748
100961.7471
100961.7462
100961.745
100961.7437
100961.7421
100961.7404
100961.7384
100961.7361
100961.7335
100961.7307
100961.7274
100961.7238
100961.7197
100961.7152
100961.7101
100961.7045
100961.6982
100961.6911
100961.6833
100961.6745
100961.6646
100961.6537
100961.6414
100961.6276
100961.6121
100961.5948
100961.5754
100961.5537
100961.5296
100961.5031
100961.4749
100961.4465
100961.4148
100960.6484
100954.3944
100954.3943
100954.3941
100954.3937
100954.3932
100954.3926
100954.3918
100954.3909
100954.3898
100954.3885
100954.387
100954.3853
100954.3834
100954.3813
100954.3788
100954.3761
100954.373
100954.3695
100954.3656
100954.3613
100954.3565
100954.3511
100954.3451
100954.3384
100954.3309
100954.3226
100954.3133
100954.303
100954.2915
100954.2788
100954.2645
100954.2488
100954.2313
100954.2122
100954.1914
100954.1693
100954.1468
100954.1254
100954.0989
100953.2005
100947.0391
100947.039
100947.0387
100947.0384
100947.0379
100947.0373
100947.0366
100947.0357
100947.0347
100947.0335
100947.0321
100947.0305
100947.0287
100947.0266
100947.0243
100947.0217
100947.0188
100947.0155
100947.0118
100947.0077
100947.0032
100946.9981
100946.9924
100946.9861
100946.9791
100946.9713
100946.9627
100946.9531
100946.9425
100946.9308
100946.9179
100946.9037
100946.8883
100946.8717
100946.8541
100946.836
100946.8183
100946.8026
100946.7796
100945.7471
100939.6838
100939.6837
100939.6835
100939.6832
100939.6828
100939.6822
100939.6815
100939.6807
100939.6797
100939.6786
100939.6773
100939.6758
100939.6741
100939.6722
100939.67
100939.6676
100939.6648
100939.6617
100939.6583
100939.6545
100939.6502
100939.6454
100939.6401
100939.6343
100939.6278
100939.6206
100939.6126
100939.6038
100939.5942
100939.5836
100939.572
100939.5595
100939.5461
100939.5319
100939.5172
100939.5027
100939.4892
100939.478
100939.4571
100938.2893
100932.3287
100932.3286
100932.3284
100932.3281
100932.3277
100932.3272
100932.3265
100932.3258
100932.3249
100932.3239
100932.3226
100932.3213
100932.3197
100932.3179
100932.3159
100932.3136
100932.3111
100932.3083
100932.3051
100932.3015
100932.2976
100932.2932
100932.2883
100932.2829
100932.2769
100932.2703
100932.263
100932.2551
100932.2464
100932.2369
100932.2267
100932.2158
100932.2043
100932.1924
100932.1805
100932.1691
100932.1591
100932.1515
100932.1318
100930.8278
100924.9736
100924.9735
100924.9734
100924.9731
100924.9727
100924.9723
100924.9717
100924.971
100924.9702
100924.9692
100924.9681
100924.9669
100924.9655
100924.9638
100924.962
100924.9599
100924.9576
100924.955
100924.9521
100924.9488
100924.9452
100924.9412
100924.9367
100924.9318
100924.9264
100924.9205
100924.9139
100924.9068
100924.8991
100924.8908
100924.882
100924.8726
100924.863
100924.8532
100924.8437
100924.835
100924.8279
100924.8233
100924.8039
100923.3634
100917.6186
100917.6186
100917.6184
100917.6182
100917.6178
100917.6174
100917.6169
100917.6163
100917.6156
100917.6147
100917.6138
100917.6126
100917.6114
100917.6099
100917.6083
100917.6064
100917.6043
100917.6019
100917.5993
100917.5964
100917.5931
100917.5895
100917.5855
100917.5811
100917.5763
100917.571
100917.5652
100917.559
100917.5522
100917.5451
100917.5375
100917.5297
100917.5217
100917.5139
100917.5066
100917.5003
100917.4956
100917.4934
100917.4739
100915.8964
100910.2637
100910.2637
100910.2635
100910.2633
100910.263
100910.2627
100910.2622
100910.2617
100910.2611
100910.2604
100910.2595
100910.2585
100910.2574
100910.2561
100910.2547
100910.253
100910.2512
100910.2491
100910.2468
100910.2442
100910.2413
100910.2381
100910.2346
100910.2307
100910.2265
100910.2218
100910.2168
100910.2114
100910.2057
100910.1996
100910.1933
100910.1869
100910.1806
100910.1745
100910.1692
100910.1649
100910.1623
100910.162
100910.1419
100908.4274
100902.9089
100902.9088
100902.9087
100902.9085
100902.9083
100902.908
100902.9076
100902.9072
100902.9067
100902.9061
100902.9053
100902.9045
100902.9035
100902.9024
100902.9012
100902.8998
100902.8982
100902.8964
100902.8944
100902.8922
100902.8897
100902.8869
100902.8839
100902.8805
100902.8769
100902.8729
100902.8687
100902.8641
100902.8594
100902.8544
100902.8493
100902.8442
100902.8393
100902.8349
100902.8313
100902.8288
100902.8279
100902.8291
100902.8083
100900.9565
100895.5541
100895.554
100895.5539
100895.5538
100895.5536
100895.5534
100895.5531
100895.5528
100895.5523
100895.5518
100895.5513
100895.5506
100895.5498
100895.5489
100895.5479
100895.5467
100895.5454
100895.5439
100895.5422
100895.5403
100895.5382
100895.5359
100895.5334
100895.5306
100895.5275
100895.5243
100895.5208
100895.5171
100895.5132
100895.5092
100895.5053
100895.5015
100895.498
100895.495
100895.4929
100895.4919
100895.4925
100895.4951
100895.4731
100893.4841
100888.1993
100888.1993
100888.1992
100888.1991
100888.199
100888.1988
100888.1986
100888.1984
100888.1981
100888.1977
100888.1972
100888.1967
100888.1961
100888.1954
100888.1946
100888.1937
100888.1926
100888.1915
100888.1901
100888.1886
100888.1869
100888.1851
100888.183
100888.1808
100888.1783
100888.1757
100888.173
100888.1701
100888.1671
100888.1642
100888.1613
100888.1587
100888.1564
100888.1548
100888.154
100888.1543
100888.1562
100888.1598
100888.1367
100886.0103
100880.8446
100880.8446
100880.8445
100880.8445
100880.8444
100880.8443
100880.8442
100880.844
100880.8438
100880.8436
100880.8433
100880.8429
100880.8425
100880.842
100880.8415
100880.8408
100880.84
100880.8391
100880.8381
100880.837
100880.8358
100880.8343
100880.8328
100880.8311
100880.8293
100880.8273
100880.8253
100880.8232
100880.8211
100880.8191
100880.8173
100880.8157
100880.8146
100880.8141
100880.8145
100880.816
100880.819
100880.8236
100880.7991
100878.5352
100873.4899
100873.4899
100873.4899
100873.4898
100873.4898
100873.4898
100873.4898
100873.4897
100873.4896
100873.4895
100873.4894
100873.4892
100873.489
100873.4887
100873.4884
100873.488
100873.4875
100873.4869
100873.4863
100873.4855
100873.4847
100873.4837
100873.4827
100873.4815
100873.4803
100873.479
100873.4777
100873.4764
100873.4751
100873.474
100873.4731
100873.4725
100873.4725
100873.4731
100873.4745
100873.4771
100873.4809
100873.4863
100873.4604
100871.0591
100866.1351
100866.1352
100866.1352
100866.1352
100866.1353
100866.1353
100866.1353
100866.1354
100866.1354
100866.1355
100866.1355
100866.1355
100866.1355
100866.1354
100866.1353
100866.1352
100866.135
100866.1347
100866.1344
100866.1341
100866.1337
100866.1332
100866.1326
100866.132
100866.1314
100866.1307
100866.1301
100866.1295
100866.1291
100866.1288
100866.1288
100866.1292
100866.1301
100866.1316
100866.134
100866.1375
100866.1421
100866.1482
100866.1207
100863.582
100858.7804
100858.7804
100858.7805
100858.7806
100858.7807
100858.7808
100858.7809
100858.7811
100858.7812
100858.7814
100858.7816
100858.7818
100858.782
100858.7821
100858.7823
100858.7824
100858.7825
100858.7826
100858.7827
100858.7827
100858.7827
100858.7827
100858.7826
100858.7825
100858.7825
100858.7825
100858.7825
100858.7826
100858.7829
100858.7835
100858.7843
100858.7855
100858.7873
100858.7898
100858.793
100858.7972
100858.8026
100858.8093
100858.7802
100856.1041
100851.4257
100851.4257
100851.4258
100851.4259
100851.4261
100851.4263
100851.4265
100851.4268
100851.427
100851.4274
100851.4277
100851.4281
100851.4285
100851.4288
100851.4292
100851.4297
100851.4301
100851.4305
100851.4309
100851.4313
100851.4317
100851.4322
100851.4326
100851.4331
100851.4336
100851.4342
100851.4349
100851.4357
100851.4367
100851.438
100851.4396
100851.4417
100851.4442
100851.4475
100851.4515
100851.4564
100851.4624
100851.4696
100851.4389
100848.6254
100844.0709
100844.0709
100844.0711
100844.0712
100844.0714
100844.0717
100844.072
100844.0724
100844.0728
100844.0733
100844.0738
100844.0743
100844.0749
100844.0756
100844.0762
100844.0769
100844.0776
100844.0783
100844.0791
100844.0799
100844.0808
100844.0816
100844.0826
100844.0835
100844.0846
100844.0858
100844.0871
100844.0886
100844.0903
100844.0923
100844.0947
100844.0975
100844.1008
100844.1048
100844.1095
100844.1151
100844.1216
100844.1293
100844.0968
100841.146
100836.7161
100836.7161
100836.7163
100836.7165
100836.7168
100836.7171
100836.7175
100836.718
100836.7186
100836.7192
100836.7198
100836.7206
100836.7214
100836.7222
100836.7231
100836.7241
100836.7251
100836.7262
100836.7273
100836.7285
100836.7297
100836.7311
100836.7325
100836.734
100836.7356
100836.7373
100836.7393
100836.7414
100836.7438
100836.7465
100836.7495
100836.753
100836.7571
100836.7617
100836.767
100836.7732
100836.7802
100836.7883
100836.7541
100833.6659
100829.3612
100829.3612
100829.3614
100829.3617
100829.362
100829.3624
100829.3629
100829.3635
100829.3642
100829.365
100829.3658
100829.3667
100829.3678
100829.3688
100829.37
100829.3712
100829.3725
100829.3739
100829.3754
100829.377
100829.3787
100829.3804
100829.3823
100829.3843
100829.3865
100829.3888
100829.3913
100829.394
100829.3971
100829.4004
100829.4041
100829.4083
100829.4129
100829.4182
100829.4241
100829.4308
100829.4383
100829.4467
100829.4108
100826.1853
100822.0062
100822.0063
100822.0065
100822.0068
100822.0072
100822.0077
100822.0083
100822.009
100822.0098
100822.0107
100822.0117
100822.0128
100822.0141
100822.0154
100822.0168
100822.0183
100822.0199
100822.0216
100822.0235
100822.0254
100822.0275
100822.0297
100822.032
100822.0345
100822.0372
100822.0401
100822.0432
100822.0465
100822.0501
100822.0541
100822.0584
100822.0632
100822.0685
100822.0743
100822.0808
100822.0879
100822.0958
100822.1046
100822.0669
100818.7041
100814.6511
100814.6512
100814.6514
100814.6518
100814.6523
100814.6528
100814.6535
100814.6544
100814.6553
100814.6564
100814.6576
100814.6589
100814.6603
100814.6618
100814.6635
100814.6653
100814.6672
100814.6692
100814.6714
100814.6738
100814.6762
100814.6789
100814.6817
100814.6847
100814.6878
100814.6912
100814.6949
100814.6988
100814.703
100814.7076
100814.7125
100814.7179
100814.7237
100814.7301
100814.737
100814.7446
100814.7529
100814.7619
100814.7225
100811.2224
100807.2959
100807.296
100807.2963
100807.2967
100807.2972
100807.2979
100807.2987
100807.2996
100807.3007
100807.3019
100807.3033
100807.3047
100807.3064
100807.3081
100807.3101
100807.3121
100807.3143
100807.3167
100807.3193
100807.322
100807.3248
100807.3279
100807.3311
100807.3346
100807.3383
100807.3422
100807.3464
100807.3509
100807.3557
100807.3608
100807.3663
100807.3722
100807.3786
100807.3855
100807.3929
100807.4009
100807.4095
100807.4188
100807.3776
100803.7403
100799.9406
100799.9407
100799.941
100799.9415
100799.9421
100799.9428
100799.9437
100799.9448
100799.946
100799.9473
100799.9488
100799.9505
100799.9524
100799.9544
100799.9565
100799.9589
100799.9614
100799.9641
100799.9669
100799.97
100799.9733
100799.9768
100799.9805
100799.9844
100799.9886
100799.993
100799.9977
100800.0027
100800.0081
100800.0137
100800.0198
100800.0263
100800.0331
100800.0405
100800.0484
100800.0568
100800.0658
100800.0753
100800.0323
100796.2577
100792.5852
100792.5853
100792.5856
100792.5861
100792.5868
100792.5876
100792.5886
100792.5898
100792.5911
100792.5926
100792.5943
100792.5961
100792.5982
100792.6004
100792.6028
100792.6054
100792.6082
100792.6112
100792.6145
100792.6179
100792.6216
100792.6254
100792.6296
100792.634
100792.6386
100792.6436
100792.6488
100792.6543
100792.6602
100792.6664
100792.673
100792.68
100792.6874
100792.6952
100792.7035
100792.7123
100792.7216
100792.7314
100792.6865
100788.7748
100785.2296
100785.2297
100785.2301
100785.2306
100785.2313
100785.2322
100785.2333
100785.2346
100785.2361
100785.2377
100785.2396
100785.2416
100785.2439
100785.2463
100785.249
100785.2518
100785.2549
100785.2583
100785.2618
100785.2656
100785.2696
100785.2739
100785.2785
100785.2834
100785.2885
100785.2939
100785.2996
100785.3057
100785.3121
100785.3188
100785.326
100785.3334
100785.3413
100785.3496
100785.3583
100785.3675
100785.377
100785.3871
100785.3404
100781.2916
100777.8738
100777.874
100777.8744
100777.875
100777.8757
100777.8767
100777.8779
100777.8793
100777.8809
100777.8827
100777.8847
100777.8869
100777.8893
100777.892
100777.8949
100777.898
100777.9014
100777.9051
100777.9089
100777.9131
100777.9175
100777.9222
100777.9272
100777.9325
100777.9381
100777.944
100777.9502
100777.9568
100777.9637
100777.971
100777.9786
100777.9866
100777.995
100778.0037
100778.0128
100778.0223
100778.0322
100778.0425
100777.994
100773.8081
100770.5179
100770.5181
100770.5185
100770.5191
100770.5199
100770.521
100770.5223
100770.5238
100770.5255
100770.5274
100770.5296
100770.532
100770.5346
100770.5375
100770.5407
100770.5441
100770.5477
100770.5517
100770.5559
100770.5604
100770.5652
100770.5703
100770.5757
100770.5814
100770.5875
100770.5938
100770.6006
100770.6077
100770.6151
100770.6229
100770.631
100770.6395
100770.6483
100770.6575
100770.667
100770.6768
100770.687
100770.6975
100770.6472
100766.3243
100763.1617
100763.1619
100763.1624
100763.1631
100763.164
100763.1651
100763.1664
100763.168
100763.1699
100763.172
100763.1743
100763.1769
100763.1797
100763.1828
100763.1862
100763.1898
100763.1938
100763.198
100763.2025
100763.2074
100763.2126
100763.218
100763.2239
100763.23
100763.2365
100763.2434
100763.2506
100763.2582
100763.2661
100763.2744
100763.2831
100763.292
100763.3014
100763.311
100763.3209
100763.3311
100763.3416
100763.3523
100763.3002
100758.8403
100755.8054
100755.8056
100755.8061
100755.8068
100755.8078
100755.809
100755.8104
100755.8121
100755.8141
100755.8163
100755.8188
100755.8215
100755.8245
100755.8279
100755.8315
100755.8354
100755.8396
100755.8441
100755.849
100755.8541
100755.8597
100755.8656
100755.8718
100755.8784
100755.8854
100755.8927
100755.9004
100755.9085
100755.9169
100755.9257
100755.9349
100755.9443
100755.9541
100755.9642
100755.9745
100755.9851
100755.9959
100756.0069
100755.9529
100751.356
100748.4489
100748.4491
100748.4496
100748.4503
100748.4513
100748.4526
100748.4542
100748.456
100748.458
100748.4604
100748.463
100748.4659
100748.4691
100748.4727
100748.4765
100748.4806
100748.4851
100748.4899
100748.4951
100748.5006
100748.5065
100748.5128
100748.5194
100748.5264
100748.5339
100748.5417
100748.5499
100748.5584
100748.5674
100748.5767
100748.5864
100748.5964
100748.6066
100748.6172
100748.6279
100748.6389
100748.65
100748.6612
100748.6054
100743.8717
100741.0921
100741.0923
100741.0928
100741.0936
100741.0947
100741.096
100741.0977
100741.0996
100741.1017
100741.1042
100741.107
100741.1101
100741.1135
100741.1172
100741.1213
100741.1256
100741.1304
100741.1355
100741.141
100741.1468
100741.153
100741.1597
100741.1667
100741.1742
100741.182
100741.1903
100741.199
100741.2081
100741.2175
100741.2274
100741.2376
100741.2481
100741.2589
100741.2699
100741.2811
100741.2924
100741.3038
100741.3154
100741.2577
100736.3872
100733.735
100733.7353
100733.7358
100733.7367
100733.7378
100733.7392
100733.7409
100733.7429
100733.7452
100733.7478
100733.7507
100733.754
100733.7575
100733.7615
100733.7657
100733.7703
100733.7753
100733.7807
100733.7865
100733.7927
100733.7992
100733.8062
100733.8137
100733.8216
100733.8299
100733.8386
100733.8478
100733.8574
100733.8674
100733.8778
100733.8885
100733.8995
100733.9108
100733.9223
100733.934
100733.9458
100733.9576
100733.9694
100733.9099
100728.9026
100726.3777
100726.378
100726.3786
100726.3795
100726.3806
100726.3821
100726.3839
100726.386
100726.3884
100726.3911
100726.3942
100726.3976
100726.4013
100726.4054
100726.4099
100726.4147
100726.42
100726.4256
100726.4317
100726.4382
100726.4451
100726.4525
100726.4603
100726.4686
100726.4773
100726.4866
100726.4962
100726.5063
100726.5169
100726.5278
100726.5391
100726.5507
100726.5625
100726.5746
100726.5868
100726.599
100726.6111
100726.6232
100726.562
100721.4179
100719.0202
100719.0205
100719.0211
100719.022
100719.0232
100719.0247
100719.0266
100719.0288
100719.0313
100719.0341
100719.0373
100719.0409
100719.0448
100719.049
100719.0537
100719.0588
100719.0643
100719.0702
100719.0765
100719.0833
100719.0906
100719.0983
100719.1065
100719.1152
100719.1244
100719.1341
100719.1443
100719.1549
100719.166
100719.1775
100719.1894
100719.2016
100719.214
100719.2266
100719.2393
100719.252
100719.2646
100719.2771
100719.214
100713.9333
100711.6623
100711.6626
100711.6632
100711.6642
100711.6655
100711.6671
100711.669
100711.6713
100711.6739
100711.6768
100711.6801
100711.6838
100711.6879
100711.6924
100711.6972
100711.7025
100711.7082
100711.7144
100711.721
100711.7281
100711.7357
100711.7438
100711.7524
100711.7615
100711.7711
100711.7813
100711.792
100711.8031
100711.8148
100711.8269
100711.8393
100711.8521
100711.8652
100711.8784
100711.8917
100711.9049
100711.918
100711.9309
100711.8661
100706.4487
100704.3042
100704.3045
100704.3052
100704.3061
100704.3074
100704.3091
100704.3111
100704.3134
100704.3161
100704.3192
100704.3227
100704.3265
100704.3307
100704.3353
100704.3404
100704.3459
100704.3518
100704.3582
100704.3651
100704.3725
100704.3804
100704.3888
100704.3978
100704.4073
100704.4174
100704.428
100704.4392
100704.4509
100704.4632
100704.4758
100704.489
100704.5024
100704.5161
100704.53
100704.5439
100704.5578
100704.5714
100704.5847
100704.5181
100698.9642
100696.9458
100696.9461
100696.9468
100696.9478
100696.9491
100696.9508
100696.9529
100696.9553
100696.9581
100696.9613
100696.9648
100696.9688
100696.9731
100696.9779
100696.9832
100696.9888
100696.995
100697.0016
100697.0088
100697.0164
100697.0247
100697.0334
100697.0428
100697.0527
100697.0632
100697.0743
100697.086
100697.0983
100697.1111
100697.1244
100697.1382
100697.1524
100697.1668
100697.1814
100697.196
100697.2105
100697.2248
100697.2386
100697.1703
100691.4799
100689.587
100689.5874
100689.588
100689.5891
100689.5905
100689.5922
100689.5944
100689.5969
100689.5997
100689.603
100689.6067
100689.6107
100689.6152
100689.6202
100689.6256
100689.6314
100689.6378
100689.6446
100689.652
100689.66
100689.6685
100689.6776
100689.6873
100689.6976
100689.7086
100689.7202
100689.7324
100689.7452
100689.7586
100689.7726
100689.7871
100689.802
100689.8172
100689.8326
100689.848
100689.8632
100689.8782
100689.8926
100689.8226
100683.9958
100682.228
100682.2283
100682.229
100682.2301
100682.2315
100682.2333
100682.2355
100682.2381
100682.241
100682.2444
100682.2481
100682.2523
100682.2569
100682.262
100682.2676
100682.2736
100682.2801
100682.2872
100682.2948
100682.3031
100682.3119
100682.3213
100682.3313
100682.342
100682.3534
100682.3655
100682.3782
100682.3916
100682.4057
100682.4203
100682.4356
100682.4512
100682.4673
100682.4835
100682.4998
100682.5159
100682.5316
100682.5467
100682.4751
100676.5122
100674.8686
100674.8689
100674.8696
100674.8707
100674.8722
100674.8741
100674.8763
100674.8789
100674.882
100674.8854
100674.8892
100674.8935
100674.8983
100674.9035
100674.9092
100674.9154
100674.9221
100674.9294
100674.9372
100674.9457
100674.9547
100674.9644
100674.9748
100674.9859
100674.9977
100675.0103
100675.0235
100675.0375
100675.0522
100675.0676
100675.0836
100675.1001
100675.117
100675.1342
100675.1515
100675.1686
100675.1852
100675.2011
100675.1279
100669.029
100667.5089
100667.5092
100667.5099
100667.5111
100667.5126
100667.5145
100667.5167
100667.5194
100667.5225
100667.526
100667.53
100667.5343
100667.5392
100667.5445
100667.5503
100667.5567
100667.5636
100667.571
100667.5791
100667.5878
100667.5971
100667.6071
100667.6178
100667.6293
100667.6415
100667.6545
100667.6682
100667.6828
100667.6982
100667.7143
100667.7311
100667.7485
100667.7664
100667.7847
100667.803
100667.8212
100667.8389
100667.8558
100667.7809
100661.5465
100660.1488
100660.1491
100660.1499
100660.151
100660.1526
100660.1545
100660.1568
100660.1596
100660.1627
100660.1663
100660.1703
100660.1748
100660.1797
100660.1851
100660.1911
100660.1976
100660.2046
100660.2122
100660.2205
100660.2294
100660.2389
100660.2492
100660.2602
100660.272
100660.2846
100660.2981
100660.3124
100660.3275
100660.3435
100660.3604
100660.3781
100660.3965
100660.4154
100660.4348
100660.4544
100660.4738
100660.4927
100660.5108
100660.4343
100654.1075
100652.7883
100652.7887
100652.7895
100652.7906
100652.7922
100652.7942
100652.7966
100652.7993
100652.8025
100652.8062
100652.8103
100652.8148
100652.8198
100652.8253
100652.8314
100652.838
100652.8451
100652.8529
100652.8613
100652.8704
100652.8802
100652.8908
100652.9021
100652.9142
100652.9272
100652.9411
100652.9558
100652.9716
100652.9883
100653.0059
100653.0245
100653.0439
100653.064
100653.0846
100653.1055
100653.1264
100653.1467
100653.1662
100653.088
100646.6588
100645.4275
100645.4279
100645.4287
100645.4299
100645.4315
100645.4335
100645.4359
100645.4387
100645.442
100645.4457
100645.4498
100645.4544
100645.4595
100645.4651
100645.4712
100645.4779
100645.4852
100645.4931
100645.5017
100645.5109
100645.5209
100645.5317
100645.5433
100645.5557
100645.5691
100645.5833
100645.5986
100645.6149
100645.6323
100645.6507
100645.6702
100645.6906
100645.712
100645.734
100645.7565
100645.7789
100645.8009
100645.822
100645.7423
100639.2434
100638.0664
100638.0667
100638.0676
100638.0688
100638.0704
100638.0724
100638.0749
100638.0778
100638.0811
100638.0848
100638.089
100638.0936
100638.0988
100638.1044
100638.1106
100638.1174
100638.1248
100638.1328
100638.1415
100638.1509
100638.1611
100638.172
100638.1839
100638.1966
100638.2102
100638.2249
100638.2407
100638.2575
100638.2755
100638.2947
100638.3151
100638.3367
100638.3593
100638.3829
100638.4071
100638.4314
100638.4553
100638.4782
100638.3972
100631.8205
100630.7048
100630.7052
100630.706
100630.7073
100630.7089
100630.711
100630.7135
100630.7164
100630.7197
100630.7235
100630.7277
100630.7324
100630.7376
100630.7433
100630.7495
100630.7564
100630.7638
100630.772
100630.7808
100630.7903
100630.8006
100630.8117
100630.8238
100630.8367
100630.8507
100630.8657
100630.8819
100630.8993
100630.9179
100630.9379
100630.9592
100630.9819
100631.006
100631.0312
100631.0573
100631.0838
100631.1099
100631.1349
100631.0518
100624.4007
100623.3429
100623.3433
100623.3441
100623.3454
100623.3471
100623.3492
100623.3517
100623.3546
100623.358
100623.3618
100623.366
100623.3707
100623.376
100623.3817
100623.388
100623.3949
100623.4024
100623.4106
100623.4194
100623.4291
100623.4395
100623.4508
100623.463
100623.4762
100623.4904
100623.5057
100623.5223
100623.5401
100623.5594
100623.5801
100623.6024
100623.6262
100623.6517
100623.6787
100623.7069
100623.7359
100623.7648
100623.7922
100623.707
100616.9687
100615.9806
100615.981
100615.9818
100615.9831
100615.9849
100615.987
100615.9896
100615.9925
100615.9959
100615.9997
100616.0039
100616.0087
100616.0139
100616.0196
100616.026
100616.0329
100616.0404
100616.0486
100616.0576
100616.0673
100616.0778
100616.0892
100616.1015
100616.1148
100616.1293
100616.1449
100616.1618
100616.1801
100616.1998
100616.2213
100616.2444
100616.2694
100616.2964
100616.3253
100616.3559
100616.3878
100616.4199
100616.4507
100616.3638
100609.5712
100608.6179
100608.6183
100608.6191
100608.6205
100608.6223
100608.6244
100608.627
100608.63
100608.6334
100608.6372
100608.6414
100608.6462
100608.6514
100608.6571
100608.6634
100608.6704
100608.6779
100608.6861
100608.6951
100608.7048
100608.7154
100608.7269
100608.7393
100608.7528
100608.7673
100608.7832
100608.8003
100608.819
100608.8392
100608.8613
100608.8852
100608.9114
100608.9398
100608.9706
100609.0038
100609.0391
100609.0753
100609.1107
100609.0226
100602.0472
100601.2547
100601.2551
100601.256
100601.2574
100601.2592
100601.2615
100601.2641
100601.2671
100601.2705
100601.2743
100601.2785
100601.2832
100601.2884
100601.2942
100601.3005
100601.3073
100601.3149
100601.3231
100601.3321
100601.3418
100601.3524
100601.3639
100601.3763
100601.3899
100601.4046
100601.4205
100601.4379
100601.4568
100601.4775
100601.5
100601.5247
100601.5518
100601.5817
100601.6145
100601.6504
100601.6894
100601.7308
100601.7724
100601.6828
100594.5159
100593.8912
100593.8916
100593.8925
100593.894
100593.8958
100593.8981
100593.9008
100593.9038
100593.9072
100593.911
100593.9152
100593.9199
100593.925
100593.9307
100593.937
100593.9438
100593.9513
100593.9595
100593.9684
100593.9781
100593.9887
100594.0002
100594.0126
100594.0262
100594.0409
100594.057
100594.0745
100594.0936
100594.1144
100594.1374
100594.1627
100594.1907
100594.2217
100594.2563
100594.2951
100594.3382
100594.3856
100594.4357
100594.3422
100586.9787
100586.5272
100586.5276
100586.5285
100586.53
100586.532
100586.5344
100586.5371
100586.5402
100586.5435
100586.5473
100586.5514
100586.5561
100586.5612
100586.5668
100586.573
100586.5798
100586.5872
100586.5953
100586.6042
100586.6138
100586.6243
100586.6357
100586.6482
100586.6617
100586.6764
100586.6924
100586.71
100586.7291
100586.7501
100586.7733
100586.799
100586.8276
100586.8596
100586.8958
100586.9371
100586.9844
100587.0385
100587.0995
100586.9958
100579.4317
100579.1629
100579.1631
100579.164
100579.1656
100579.1678
100579.1702
100579.173
100579.176
100579.1793
100579.183
100579.1871
100579.1916
100579.1967
100579.2022
100579.2083
100579.2149
100579.2223
100579.2303
100579.239
100579.2485
100579.2589
100579.2703
100579.2826
100579.296
100579.3106
100579.3265
100579.3441
100579.3632
100579.3841
100579.4074
100579.4333
100579.4623
100579.4949
100579.5322
100579.5755
100579.6265
100579.6875
100579.7612
100579.6305
100571.898
100571.7979
100571.7979
100571.7987
100571.8004
100571.8026
100571.8052
100571.8079
100571.8108
100571.814
100571.8175
100571.8214
100571.8258
100571.8307
100571.836
100571.8419
100571.8483
100571.8556
100571.8634
100571.8719
100571.8813
100571.8913
100571.9027
100571.9148
100571.928
100571.9423
100571.9579
100571.9755
100571.9943
100572.015
100572.0379
100572.0641
100572.0928
100572.1254
100572.163
100572.2076
100572.2607
100572.3268
100572.4124
100571.8781
100560.6287
100150.9054
100150.8627
100150.8785
100150.9367
100151.0111
100151.0919
100151.176
100151.2646
100151.36
100151.465
100151.5817
100151.7124
100151.8585
100152.021
100152.1976
100152.3837
100152.6062
100152.8361
100153.095
100153.3753
100153.6722
100154.021
100154.3785
100154.7754
100155.2058
100155.67
100156.2087
100156.7678
100157.384
100158.0702
100158.8664
100159.7223
100160.6919
100161.8149
100163.1521
100164.717
100166.6797
100169.2283
100173.5627
100187.3387
100135.2298
100135.2341
100135.2351
100135.2354
100135.2357
100135.2359
100135.2361
100135.2363
100135.2364
100135.2366
100135.2368
100135.237
100135.2372
100135.2375
100135.2377
100135.2379
100135.2384
100135.2387
100135.2392
100135.2396
100135.24
100135.2409
100135.2415
100135.2423
100135.2432
100135.2442
100135.2459
100135.2472
100135.2488
100135.251
100135.2542
100135.2575
100135.2619
100135.2685
100135.2791
100135.2957
100135.3295
100135.3851
100135.4057
100135.2339
100135.1992
100135.1991
100135.1991
100135.1991
100135.1991
100135.1991
100135.1991
100135.1991
100135.1992