/*--------------------------------*- C++ -*----------------------------------*\
| =========                 |                                                 |
| \\      /  F ield         | OpenFOAM: The Open Source CFD Toolbox           |
|  \\    /   O peration     | Version:  v1912                                 |
|   \\  /    A nd           | Website:  www.openfoam.com                      |
|    \\/     M anipulation  |                                                 |
\*---------------------------------------------------------------------------*/
FoamFile
{
    version     2.0;
    format      ascii;
    class       volScalarField;
    location    "0.1";
    object      p_rgh;
}
// * * * * * * * * * * * * * * * * * * * * * * * * * * * * * * * * * * * * * //

dimensions      [1 -1 -2 0 0 0 0];


internalField   nonuniform List<scalar> 
4800
(
101002.2505
101002.2504
101002.2501
101002.2496
101002.249
101002.2482
101002.2472
101002.2461
101002.2447
101002.2431
101002.2413
101002.2392
101002.2369
101002.2342
101002.2312
101002.2278
101002.2241
101002.2198
101002.2151
101002.2098
101002.2039
101002.1972
101002.1898
101002.1815
101002.1722
101002.1617
101002.1499
101002.1365
101002.1214
101002.1041
101002.0843
101002.0615
101002.0348
101002.0032
101001.9653
101001.9185
101001.8587
101001.7778
101001.6591
101001.4023
100994.8944
100994.8943
100994.894
100994.8935
100994.8929
100994.8921
100994.8912
100994.89
100994.8887
100994.8871
100994.8853
100994.8832
100994.8809
100994.8782
100994.8753
100994.8719
100994.8682
100994.864
100994.8593
100994.854
100994.8481
100994.8415
100994.8341
100994.8259
100994.8166
100994.8063
100994.7946
100994.7814
100994.7664
100994.7494
100994.7298
100994.7074
100994.6812
100994.6504
100994.6136
100994.5688
100994.5127
100994.4401
100994.342
100994.0089
100987.5385
100987.5383
100987.538
100987.5376
100987.537
100987.5362
100987.5353
100987.5341
100987.5328
100987.5312
100987.5295
100987.5274
100987.5251
100987.5225
100987.5196
100987.5163
100987.5126
100987.5084
100987.5038
100987.4986
100987.4928
100987.4863
100987.4791
100987.4709
100987.4618
100987.4516
100987.4402
100987.4272
100987.4126
100987.396
100987.377
100987.3553
100987.3301
100987.3007
100987.2661
100987.2248
100987.1748
100987.1141
100987.0399
100986.624
100980.1827
100980.1825
100980.1822
100980.1818
100980.1812
100980.1805
100980.1795
100980.1784
100980.1771
100980.1756
100980.1738
100980.1719
100980.1696
100980.167
100980.1642
100980.1609
100980.1573
100980.1533
100980.1487
100980.1436
100980.138
100980.1316
100980.1245
100980.1166
100980.1077
100980.0978
100980.0866
100980.0741
100980.06
100980.044
100980.0258
100980.0051
100979.9813
100979.9539
100979.9222
100979.8853
100979.8424
100979.7936
100979.7386
100979.2116
100972.827
100972.8269
100972.8266
100972.8262
100972.8256
100972.8248
100972.8239
100972.8229
100972.8216
100972.8201
100972.8184
100972.8165
100972.8143
100972.8118
100972.809
100972.8059
100972.8023
100972.7984
100972.794
100972.7891
100972.7835
100972.7774
100972.7705
100972.7629
100972.7543
100972.7447
100972.734
100972.7219
100972.7084
100972.6932
100972.676
100972.6566
100972.6345
100972.6095
100972.581
100972.5489
100972.5131
100972.4749
100972.4333
100971.7791
100965.4714
100965.4713
100965.4711
100965.4706
100965.4701
100965.4694
100965.4685
100965.4675
100965.4662
100965.4648
100965.4632
100965.4613
100965.4592
100965.4568
100965.4541
100965.4511
100965.4477
100965.4439
100965.4396
100965.4349
100965.4296
100965.4236
100965.417
100965.4097
100965.4015
100965.3923
100965.3821
100965.3707
100965.3579
100965.3436
100965.3275
100965.3096
100965.2895
100965.267
100965.242
100965.2146
100965.1854
100965.1559
100965.1228
100964.3355
100958.116
100958.1159
100958.1157
100958.1153
100958.1147
100958.1141
100958.1132
100958.1122
100958.1111
100958.1097
100958.1081
100958.1064
100958.1043
100958.102
100958.0995
100958.0966
100958.0933
100958.0897
100958.0856
100958.081
100958.076
100958.0703
100958.064
100958.057
100958.0493
100958.0406
100958.0309
100958.0202
100958.0083
100957.995
100957.9802
100957.9638
100957.9458
100957.9259
100957.9043
100957.8814
100957.858
100957.8357
100957.8079
100956.8851
100950.7607
100950.7606
100950.7604
100950.76
100950.7595
100950.7589
100950.7581
100950.7571
100950.756
100950.7547
100950.7533
100950.7516
100950.7497
100950.7475
100950.745
100950.7423
100950.7392
100950.7357
100950.7319
100950.7276
100950.7228
100950.7174
100950.7115
100950.7049
100950.6976
100950.6895
100950.6805
100950.6705
100950.6595
100950.6473
100950.6339
100950.6191
100950.6031
100950.5859
100950.5676
100950.5488
100950.5303
100950.5139
100950.4896
100949.429
100943.4055
100943.4054
100943.4052
100943.4049
100943.4044
100943.4038
100943.4031
100943.4022
100943.4011
100943.3999
100943.3986
100943.397
100943.3952
100943.3931
100943.3908
100943.3882
100943.3853
100943.3821
100943.3785
100943.3744
100943.37
100943.365
100943.3594
100943.3533
100943.3464
100943.3389
100943.3306
100943.3214
100943.3114
100943.3003
100943.2883
100943.2753
100943.2613
100943.2465
100943.2313
100943.2161
100943.202
100943.1902
100943.1681
100941.9683
100936.0505
100936.0504
100936.0502
100936.0498
100936.0494
100936.0489
100936.0482
100936.0474
100936.0464
100936.0453
100936.044
100936.0425
100936.0409
100936.039
100936.0368
100936.0344
100936.0317
100936.0287
100936.0254
100936.0216
100936.0175
100936.0128
100936.0077
100936.002
100935.9958
100935.9889
100935.9813
100935.973
100935.9639
100935.954
100935.9434
100935.932
100935.92
100935.9076
100935.8951
100935.8832
100935.8726
100935.8646
100935.8436
100934.504
100928.6955
100928.6954
100928.6952
100928.6949
100928.6945
100928.694
100928.6934
100928.6927
100928.6918
100928.6908
100928.6896
100928.6883
100928.6867
100928.685
100928.683
100928.6808
100928.6784
100928.6756
100928.6725
100928.6691
100928.6653
100928.661
100928.6564
100928.6512
100928.6455
100928.6393
100928.6324
100928.625
100928.6169
100928.6082
100928.599
100928.5892
100928.5791
100928.5689
100928.5589
100928.5498
100928.5422
100928.5372
100928.5165
100927.0367
100921.3406
100921.3405
100921.3403
100921.3401
100921.3397
100921.3393
100921.3387
100921.3381
100921.3373
100921.3364
100921.3353
100921.3341
100921.3327
100921.3312
100921.3294
100921.3274
100921.3252
100921.3227
100921.3199
100921.3168
100921.3134
100921.3095
100921.3053
100921.3007
100921.2956
100921.29
100921.284
100921.2774
100921.2704
100921.2628
100921.2549
100921.2467
100921.2384
100921.2301
100921.2224
100921.2157
100921.2107
100921.2081
100921.1872
100919.5668
100913.9858
100913.9857
100913.9855
100913.9853
100913.985
100913.9846
100913.9841
100913.9836
100913.9829
100913.9821
100913.9812
100913.9801
100913.9789
100913.9775
100913.9759
100913.9742
100913.9722
100913.97
100913.9675
100913.9648
100913.9617
100913.9583
100913.9546
100913.9505
100913.946
100913.9411
100913.9358
100913.9302
100913.9241
100913.9177
100913.9111
100913.9044
100913.8977
100913.8913
100913.8856
100913.881
100913.8781
100913.8775
100913.856
100912.0947
100906.631
100906.6309
100906.6308
100906.6306
100906.6304
100906.6301
100906.6296
100906.6292
100906.6286
100906.6279
100906.6271
100906.6262
100906.6252
100906.624
100906.6226
100906.6211
100906.6194
100906.6175
100906.6153
100906.6129
100906.6103
100906.6073
100906.6041
100906.6006
100906.5967
100906.5925
100906.588
100906.5832
100906.5781
100906.5729
100906.5675
100906.5621
100906.5569
100906.5522
100906.5483
100906.5455
100906.5444
100906.5454
100906.523
100904.6207
100899.2763
100899.2763
100899.2762
100899.276
100899.2758
100899.2755
100899.2752
100899.2748
100899.2744
100899.2738
100899.2732
100899.2724
100899.2715
100899.2706
100899.2694
100899.2682
100899.2667
100899.2651
100899.2633
100899.2613
100899.259
100899.2565
100899.2538
100899.2508
100899.2476
100899.2441
100899.2404
100899.2364
100899.2323
100899.2281
100899.2239
100899.2198
100899.2161
100899.2128
100899.2104
100899.2092
100899.2096
100899.2121
100899.1885
100897.1452
100891.9216
100891.9216
100891.9215
100891.9214
100891.9213
100891.9211
100891.9208
100891.9206
100891.9202
100891.9198
100891.9193
100891.9187
100891.918
100891.9172
100891.9163
100891.9153
100891.9142
100891.9129
100891.9114
100891.9098
100891.9079
100891.9059
100891.9037
100891.9013
100891.8987
100891.8959
100891.8929
100891.8898
100891.8866
100891.8835
100891.8804
100891.8775
100891.875
100891.8731
100891.8721
100891.8723
100891.874
100891.8776
100891.8527
100889.6682
100884.567
100884.567
100884.567
100884.5669
100884.5668
100884.5667
100884.5665
100884.5663
100884.5661
100884.5658
100884.5655
100884.565
100884.5646
100884.564
100884.5633
100884.5626
100884.5617
100884.5607
100884.5596
100884.5584
100884.557
100884.5554
100884.5537
100884.5519
100884.5499
100884.5478
100884.5456
100884.5433
100884.541
100884.5388
100884.5367
100884.535
100884.5337
100884.533
100884.5332
100884.5346
100884.5374
100884.542
100884.5157
100882.19
100877.2124
100877.2124
100877.2124
100877.2124
100877.2123
100877.2123
100877.2122
100877.2121
100877.212
100877.2119
100877.2117
100877.2114
100877.2112
100877.2108
100877.2104
100877.2099
100877.2094
100877.2087
100877.2079
100877.2071
100877.2061
100877.2051
100877.2039
100877.2026
100877.2012
100877.1998
100877.1983
100877.1968
100877.1954
100877.1941
100877.193
100877.1923
100877.192
100877.1925
100877.1938
100877.1962
100877.2
100877.2054
100877.1775
100874.7107
100869.8578
100869.8578
100869.8579
100869.8579
100869.8579
100869.8579
100869.8579
100869.858
100869.858
100869.858
100869.8579
100869.8579
100869.8578
100869.8577
100869.8575
100869.8573
100869.8571
100869.8567
100869.8563
100869.8559
100869.8553
100869.8547
100869.8541
100869.8534
100869.8526
100869.8518
100869.851
100869.8503
100869.8497
100869.8493
100869.8491
100869.8494
100869.8501
100869.8515
100869.8538
100869.8572
100869.8618
100869.8679
100869.8384
100867.2304
100862.5032
100862.5033
100862.5033
100862.5034
100862.5034
100862.5035
100862.5037
100862.5038
100862.5039
100862.5041
100862.5042
100862.5043
100862.5045
100862.5046
100862.5047
100862.5047
100862.5048
100862.5048
100862.5048
100862.5047
100862.5046
100862.5045
100862.5043
100862.5042
100862.504
100862.5038
100862.5038
100862.5038
100862.504
100862.5044
100862.5051
100862.5062
100862.5078
100862.5102
100862.5134
100862.5175
100862.5229
100862.5296
100862.4984
100859.7492
100855.1486
100855.1486
100855.1487
100855.1488
100855.149
100855.1492
100855.1494
100855.1496
100855.1499
100855.1502
100855.1505
100855.1508
100855.1511
100855.1515
100855.1518
100855.1522
100855.1525
100855.1529
100855.1532
100855.1536
100855.1539
100855.1542
100855.1546
100855.155
100855.1554
100855.1559
100855.1564
100855.1572
100855.1581
100855.1593
100855.1608
100855.1628
100855.1652
100855.1684
100855.1724
100855.1773
100855.1833
100855.1905
100855.1575
100852.2672
100847.794
100847.794
100847.7941
100847.7943
100847.7945
100847.7947
100847.795
100847.7954
100847.7958
100847.7962
100847.7967
100847.7972
100847.7978
100847.7983
100847.799
100847.7996
100847.8003
100847.8009
100847.8017
100847.8024
100847.8032
100847.804
100847.8048
100847.8057
100847.8067
100847.8078
100847.8091
100847.8105
100847.8121
100847.814
100847.8163
100847.819
100847.8223
100847.8262
100847.8309
100847.8365
100847.843
100847.8507
100847.816
100844.7845
100840.4393
100840.4393
100840.4394
100840.4397
100840.4399
100840.4403
100840.4407
100840.4411
100840.4417
100840.4423
100840.4429
100840.4436
100840.4444
100840.4452
100840.4461
100840.447
100840.448
100840.449
100840.4501
100840.4512
100840.4524
100840.4537
100840.455
100840.4565
100840.458
100840.4597
100840.4616
100840.4636
100840.4659
100840.4686
100840.4716
100840.475
100840.479
100840.4836
100840.4889
100840.4951
100840.5022
100840.5103
100840.4737
100837.3012
100833.0845
100833.0846
100833.0847
100833.085
100833.0853
100833.0857
100833.0862
100833.0868
100833.0875
100833.0882
100833.0891
100833.09
100833.0909
100833.092
100833.0931
100833.0943
100833.0956
100833.097
100833.0984
100833.1
100833.1016
100833.1033
100833.1051
100833.1071
100833.1092
100833.1115
100833.1139
100833.1166
100833.1196
100833.1229
100833.1266
100833.1307
100833.1354
100833.1406
100833.1465
100833.1532
100833.1608
100833.1692
100833.1308
100829.8172
100825.7296
100825.7297
100825.7299
100825.7302
100825.7306
100825.7311
100825.7317
100825.7324
100825.7332
100825.7341
100825.7351
100825.7362
100825.7374
100825.7387
100825.7401
100825.7416
100825.7432
100825.7449
100825.7467
100825.7486
100825.7507
100825.7528
100825.7552
100825.7576
100825.7603
100825.7631
100825.7662
100825.7695
100825.7731
100825.777
100825.7813
100825.7861
100825.7914
100825.7972
100825.8037
100825.8109
100825.8188
100825.8277
100825.7874
100822.3327
100818.3747
100818.3748
100818.375
100818.3754
100818.3758
100818.3764
100818.3771
100818.3779
100818.3789
100818.3799
100818.3811
100818.3824
100818.3838
100818.3853
100818.387
100818.3888
100818.3907
100818.3927
100818.3949
100818.3972
100818.3997
100818.4023
100818.4051
100818.408
100818.4112
100818.4146
100818.4182
100818.4221
100818.4263
100818.4309
100818.4358
100818.4412
100818.447
100818.4534
100818.4604
100818.4681
100818.4764
100818.4856
100818.4434
100814.8477
100811.0197
100811.0198
100811.02
100811.0204
100811.021
100811.0216
100811.0224
100811.0234
100811.0244
100811.0256
100811.027
100811.0285
100811.0301
100811.0319
100811.0338
100811.0358
100811.038
100811.0404
100811.0429
100811.0456
100811.0485
100811.0516
100811.0548
100811.0583
100811.062
100811.0659
100811.0701
100811.0745
100811.0793
100811.0845
100811.09
100811.096
100811.1024
100811.1093
100811.1168
100811.1249
100811.1336
100811.143
100811.0989
100807.3622
100803.6645
100803.6646
100803.6649
100803.6654
100803.6659
100803.6667
100803.6676
100803.6686
100803.6699
100803.6712
100803.6727
100803.6744
100803.6762
100803.6783
100803.6804
100803.6828
100803.6853
100803.688
100803.6909
100803.6939
100803.6972
100803.7007
100803.7044
100803.7084
100803.7125
100803.717
100803.7217
100803.7268
100803.7321
100803.7378
100803.7439
100803.7504
100803.7574
100803.7648
100803.7727
100803.7812
100803.7903
100803.8
100803.7539
100799.8764
100796.3092
100796.3093
100796.3096
100796.3101
100796.3108
100796.3116
100796.3126
100796.3138
100796.3151
100796.3166
100796.3183
100796.3202
100796.3223
100796.3245
100796.3269
100796.3295
100796.3324
100796.3354
100796.3386
100796.3421
100796.3457
100796.3497
100796.3538
100796.3582
100796.3629
100796.3679
100796.3731
100796.3787
100796.3846
100796.3909
100796.3976
100796.4046
100796.4121
100796.42
100796.4283
100796.4372
100796.4466
100796.4565
100796.4086
100792.3901
100788.9537
100788.9539
100788.9542
100788.9548
100788.9555
100788.9564
100788.9575
100788.9588
100788.9603
100788.9619
100788.9638
100788.9658
100788.9681
100788.9706
100788.9732
100788.9761
100788.9793
100788.9826
100788.9862
100788.99
100788.9941
100788.9984
100789.003
100789.0079
100789.0131
100789.0186
100789.0243
100789.0305
100789.0369
100789.0437
100789.0509
100789.0585
100789.0664
100789.0748
100789.0836
100789.0929
100789.1026
100789.1127
100789.0629
100784.9035
100781.5981
100781.5983
100781.5987
100781.5992
100781.6
100781.601
100781.6022
100781.6036
100781.6052
100781.607
100781.609
100781.6113
100781.6138
100781.6165
100781.6194
100781.6226
100781.626
100781.6296
100781.6336
100781.6377
100781.6422
100781.647
100781.652
100781.6573
100781.663
100781.669
100781.6753
100781.6819
100781.6889
100781.6963
100781.704
100781.712
100781.7205
100781.7293
100781.7386
100781.7482
100781.7582
100781.7686
100781.7168
100777.4166
100774.2423
100774.2425
100774.2429
100774.2435
100774.2444
100774.2454
100774.2467
100774.2482
100774.25
100774.2519
100774.2541
100774.2566
100774.2592
100774.2621
100774.2653
100774.2688
100774.2725
100774.2764
100774.2807
100774.2853
100774.2901
100774.2953
100774.3007
100774.3065
100774.3127
100774.3191
100774.3259
100774.3331
100774.3406
100774.3485
100774.3567
100774.3653
100774.3743
100774.3836
100774.3932
100774.4032
100774.4135
100774.4241
100774.3704
100769.9295
100766.8863
100766.8865
100766.8869
100766.8876
100766.8885
100766.8897
100766.891
100766.8927
100766.8945
100766.8966
100766.899
100766.9016
100766.9045
100766.9076
100766.911
100766.9147
100766.9187
100766.923
100766.9276
100766.9325
100766.9377
100766.9433
100766.9492
100766.9555
100766.9621
100766.969
100766.9763
100766.984
100766.9921
100767.0005
100767.0092
100767.0183
100767.0277
100767.0375
100767.0475
100767.0579
100767.0685
100767.0794
100767.0237
100762.4421
100759.5301
100759.5303
100759.5308
100759.5315
100759.5325
100759.5337
100759.5352
100759.5369
100759.5389
100759.5411
100759.5436
100759.5464
100759.5495
100759.5528
100759.5565
100759.5605
100759.5647
100759.5693
100759.5742
100759.5795
100759.5851
100759.5911
100759.5974
100759.6041
100759.6112
100759.6186
100759.6264
100759.6346
100759.6432
100759.6521
100759.6614
100759.671
100759.6809
100759.6911
100759.7016
100759.7124
100759.7233
100759.7344
100759.6768
100754.9545
100752.1736
100752.1739
100752.1744
100752.1751
100752.1762
100752.1775
100752.179
100752.1809
100752.183
100752.1853
100752.188
100752.191
100752.1942
100752.1978
100752.2017
100752.2059
100752.2105
100752.2154
100752.2206
100752.2262
100752.2322
100752.2385
100752.2453
100752.2524
100752.2599
100752.2679
100752.2762
100752.2849
100752.294
100752.3035
100752.3133
100752.3234
100752.3338
100752.3445
100752.3555
100752.3666
100752.3778
100752.3892
100752.3297
100747.4667
100744.817
100744.8172
100744.8178
100744.8186
100744.8196
100744.821
100744.8227
100744.8246
100744.8268
100744.8293
100744.8322
100744.8353
100744.8387
100744.8425
100744.8466
100744.8511
100744.8559
100744.8611
100744.8667
100744.8726
100744.8789
100744.8857
100744.8928
100744.9004
100744.9084
100744.9168
100744.9256
100744.9349
100744.9445
100744.9545
100744.9649
100744.9755
100744.9865
100744.9977
100745.0091
100745.0206
100745.0322
100745.0439
100744.9824
100739.9789
100737.4601
100737.4603
100737.4609
100737.4617
100737.4629
100737.4643
100737.466
100737.4681
100737.4704
100737.473
100737.476
100737.4793
100737.483
100737.4869
100737.4913
100737.496
100737.5011
100737.5065
100737.5124
100737.5187
100737.5254
100737.5325
100737.5401
100737.5481
100737.5565
100737.5654
100737.5748
100737.5845
100737.5947
100737.6052
100737.6162
100737.6274
100737.6389
100737.6506
100737.6624
100737.6744
100737.6864
100737.6983
100737.6349
100732.4909
100730.1029
100730.1031
100730.1037
100730.1046
100730.1058
100730.1073
100730.1091
100730.1113
100730.1137
100730.1165
100730.1196
100730.1231
100730.1269
100730.131
100730.1356
100730.1405
100730.1459
100730.1516
100730.1578
100730.1644
100730.1714
100730.179
100730.1869
100730.1954
100730.2043
100730.2137
100730.2235
100730.2338
100730.2445
100730.2556
100730.2671
100730.2789
100730.291
100730.3032
100730.3156
100730.328
100730.3404
100730.3527
100730.2874
100725.0029
100722.7454
100722.7457
100722.7463
100722.7472
100722.7485
100722.7501
100722.7519
100722.7542
100722.7567
100722.7596
100722.7629
100722.7665
100722.7705
100722.7748
100722.7796
100722.7848
100722.7903
100722.7964
100722.8028
100722.8098
100722.8171
100722.825
100722.8334
100722.8423
100722.8516
100722.8615
100722.8719
100722.8827
100722.894
100722.9057
100722.9178
100722.9302
100722.9428
100722.9557
100722.9686
100722.9815
100722.9944
100723.007
100722.9398
100717.5149
100715.3877
100715.388
100715.3886
100715.3896
100715.3909
100715.3925
100715.3945
100715.3968
100715.3994
100715.4025
100715.4058
100715.4096
100715.4137
100715.4183
100715.4232
100715.4286
100715.4345
100715.4407
100715.4475
100715.4547
100715.4625
100715.4707
100715.4795
100715.4888
100715.4986
100715.5089
100715.5198
100715.5312
100715.5431
100715.5554
100715.5681
100715.5811
100715.5944
100715.6079
100715.6214
100715.6349
100715.6482
100715.6613
100715.5922
100710.0269
100708.0297
100708.03
100708.0306
100708.0316
100708.033
100708.0346
100708.0367
100708.0391
100708.0418
100708.045
100708.0485
100708.0524
100708.0567
100708.0614
100708.0665
100708.0721
100708.0782
100708.0847
100708.0918
100708.0993
100708.1074
100708.116
100708.1251
100708.1348
100708.1451
100708.156
100708.1674
100708.1793
100708.1918
100708.2047
100708.2181
100708.2318
100708.2458
100708.2599
100708.2741
100708.2882
100708.3021
100708.3156
100708.2446
100702.5391
100700.6713
100700.6716
100700.6723
100700.6733
100700.6747
100700.6765
100700.6786
100700.681
100700.6839
100700.6871
100700.6908
100700.6948
100700.6992
100700.7041
100700.7095
100700.7153
100700.7215
100700.7283
100700.7356
100700.7434
100700.7518
100700.7608
100700.7703
100700.7804
100700.7912
100700.8025
100700.8144
100700.827
100700.84
100700.8536
100700.8677
100700.8821
100700.8968
100700.9117
100700.9266
100700.9414
100700.9559
100700.97
100700.8971
100695.0515
100693.3127
100693.313
100693.3137
100693.3147
100693.3162
100693.318
100693.3201
100693.3227
100693.3256
100693.329
100693.3327
100693.3368
100693.3414
100693.3465
100693.352
100693.358
100693.3645
100693.3715
100693.379
100693.3871
100693.3958
100693.4051
100693.415
100693.4256
100693.4368
100693.4486
100693.4611
100693.4742
100693.4879
100693.5021
100693.5169
100693.5321
100693.5476
100693.5633
100693.579
100693.5946
100693.6098
100693.6245
100693.5498
100687.5641
100685.9537
100685.954
100685.9547
100685.9558
100685.9573
100685.9591
100685.9614
100685.964
100685.967
100685.9704
100685.9743
100685.9785
100685.9833
100685.9884
100685.9941
100686.0003
100686.007
100686.0142
100686.022
100686.0304
100686.0394
100686.049
100686.0593
100686.0702
100686.0818
100686.0941
100686.1071
100686.1208
100686.1352
100686.1502
100686.1657
100686.1817
100686.1981
100686.2146
100686.2312
100686.2477
100686.2637
100686.2792
100686.2028
100680.0772
100678.5943
100678.5947
100678.5954
100678.5965
100678.598
100678.5999
100678.6022
100678.6049
100678.608
100678.6115
100678.6155
100678.6198
100678.6247
100678.63
100678.6358
100678.6422
100678.649
100678.6565
100678.6645
100678.6731
100678.6824
100678.6923
100678.703
100678.7143
100678.7263
100678.7391
100678.7527
100678.767
100678.782
100678.7977
100678.814
100678.8309
100678.8482
100678.8658
100678.8833
100678.9008
100678.9178
100678.9341
100678.856
100672.5907
100671.2347
100671.235
100671.2358
100671.2369
100671.2385
100671.2404
100671.2427
100671.2455
100671.2486
100671.2522
100671.2563
100671.2607
100671.2657
100671.2711
100671.2771
100671.2836
100671.2906
100671.2983
100671.3065
100671.3154
100671.3249
100671.3351
100671.3461
100671.3578
100671.3703
100671.3836
100671.3977
100671.4126
100671.4283
100671.4447
100671.4619
100671.4797
100671.498
100671.5166
100671.5353
100671.5538
100671.5719
100671.5892
100671.5094
100665.1041
100663.8746
100663.875
100663.8758
100663.8769
100663.8785
100663.8805
100663.8829
100663.8857
100663.8889
100663.8926
100663.8967
100663.9013
100663.9063
100663.9119
100663.9179
100663.9246
100663.9318
100663.9396
100663.948
100663.9571
100663.9669
100663.9774
100663.9887
100664.0007
100664.0136
100664.0274
100664.042
100664.0575
100664.0739
100664.0911
100664.1092
100664.128
100664.1473
100664.1671
100664.1871
100664.2069
100664.2262
100664.2447
100664.1631
100657.6674
100656.5142
100656.5146
100656.5154
100656.5166
100656.5182
100656.5202
100656.5227
100656.5255
100656.5288
100656.5325
100656.5367
100656.5413
100656.5465
100656.5521
100656.5583
100656.5651
100656.5724
100656.5804
100656.589
100656.5983
100656.6083
100656.6191
100656.6306
100656.6431
100656.6564
100656.6705
100656.6857
100656.7018
100656.7189
100656.7369
100656.7559
100656.7757
100656.7962
100656.8173
100656.8387
100656.8599
100656.8806
100656.9003
100656.8169
100650.2335
100649.1535
100649.1538
100649.1547
100649.1559
100649.1575
100649.1596
100649.1621
100649.165
100649.1683
100649.1721
100649.1763
100649.181
100649.1862
100649.192
100649.1982
100649.2051
100649.2126
100649.2206
100649.2294
100649.2389
100649.2491
100649.2601
100649.272
100649.2847
100649.2984
100649.313
100649.3286
100649.3453
100649.3631
100649.3819
100649.4019
100649.4228
100649.4446
100649.4671
100649.49
100649.5129
100649.5352
100649.5563
100649.4704
100642.8104
100641.7923
100641.7927
100641.7935
100641.7948
100641.7965
100641.7985
100641.8011
100641.804
100641.8074
100641.8112
100641.8155
100641.8203
100641.8255
100641.8313
100641.8377
100641.8446
100641.8522
100641.8604
100641.8693
100641.8789
100641.8894
100641.9006
100641.9127
100641.9257
100641.9397
100641.9547
100641.9709
100641.9881
100642.0066
100642.0262
100642.0471
100642.0692
100642.0923
100642.1164
100642.1411
100642.1659
100642.1901
100642.2129
100642.1248
100635.339
100634.4308
100634.4312
100634.432
100634.4333
100634.435
100634.4371
100634.4397
100634.4427
100634.4461
100634.4499
100634.4543
100634.4591
100634.4644
100634.4702
100634.4767
100634.4837
100634.4913
100634.4996
100634.5086
100634.5184
100634.529
100634.5404
100634.5527
100634.566
100634.5803
100634.5957
100634.6122
100634.63
100634.6491
100634.6696
100634.6915
100634.7147
100634.7393
100634.7651
100634.7917
100634.8188
100634.8453
100634.8704
100634.7805
100627.9573
100627.0689
100627.0693
100627.0701
100627.0714
100627.0732
100627.0753
100627.0779
100627.0809
100627.0844
100627.0883
100627.0926
100627.0974
100627.1028
100627.1087
100627.1151
100627.1222
100627.1299
100627.1383
100627.1474
100627.1572
100627.1679
100627.1795
100627.192
100627.2055
100627.2201
100627.2358
100627.2528
100627.2711
100627.2908
100627.312
100627.3348
100627.3593
100627.3854
100627.413
100627.4419
100627.4715
100627.5009
100627.5288
100627.4374
100620.5366
100619.7066
100619.707
100619.7078
100619.7092
100619.7109
100619.7131
100619.7158
100619.7188
100619.7223
100619.7262
100619.7305
100619.7354
100619.7408
100619.7467
100619.7531
100619.7602
100619.768
100619.7764
100619.7855
100619.7955
100619.8063
100619.8179
100619.8306
100619.8443
100619.8591
100619.8751
100619.8924
100619.9111
100619.9314
100619.9533
100619.9771
100620.0027
100620.0304
100620.06
100620.0913
100620.124
100620.1569
100620.1884
100620.0956
100613.121
100612.3438
100612.3442
100612.3451
100612.3465
100612.3483
100612.3505
100612.3532
100612.3563
100612.3597
100612.3637
100612.368
100612.3729
100612.3783
100612.3842
100612.3906
100612.3977
100612.4055
100612.4139
100612.4231
100612.4331
100612.4439
100612.4557
100612.4684
100612.4822
100612.4972
100612.5134
100612.531
100612.5501
100612.5709
100612.5935
100612.6181
100612.6449
100612.674
100612.7057
100612.7397
100612.7759
100612.8131
100612.8494
100612.755
100605.5842
100604.9807
100604.9811
100604.982
100604.9834
100604.9853
100604.9876
100604.9903
100604.9933
100604.9968
100605.0007
100605.0051
100605.0099
100605.0153
100605.0212
100605.0276
100605.0347
100605.0424
100605.0509
100605.0601
100605.0701
100605.0809
100605.0927
100605.1055
100605.1194
100605.1344
100605.1508
100605.1687
100605.1881
100605.2092
100605.2324
100605.2577
100605.2856
100605.3162
100605.3498
100605.3867
100605.4268
100605.4692
100605.5121
100605.4155
100598.0469
100597.6171
100597.6175
100597.6184
100597.6199
100597.6218
100597.6242
100597.6269
100597.63
100597.6335
100597.6374
100597.6418
100597.6466
100597.6519
100597.6577
100597.6642
100597.6712
100597.6789
100597.6873
100597.6964
100597.7064
100597.7172
100597.729
100597.7418
100597.7557
100597.7708
100597.7873
100597.8052
100597.8248
100597.8463
100597.8698
100597.8958
100597.9245
100597.9564
100597.992
100598.0318
100598.0761
100598.1248
100598.1763
100598.0748
100590.5042
100590.2531
100590.2534
100590.2544
100590.2559
100590.258
100590.2604
100590.2632
100590.2663
100590.2698
100590.2737
100590.278
100590.2828
100590.288
100590.2938
100590.3002
100590.3071
100590.3147
100590.3231
100590.3321
100590.342
100590.3528
100590.3646
100590.3773
100590.3912
100590.4062
100590.4227
100590.4407
100590.4604
100590.482
100590.5058
100590.5322
100590.5616
100590.5945
100590.6317
100590.6741
100590.7227
100590.7784
100590.8411
100590.7276
100582.9498
100582.8887
100582.889
100582.8898
100582.8915
100582.8936
100582.8962
100582.899
100582.9021
100582.9056
100582.9094
100582.9136
100582.9183
100582.9235
100582.9292
100582.9354
100582.9422
100582.9498
100582.958
100582.967
100582.9767
100582.9874
100582.9991
100583.0117
100583.0255
100583.0404
100583.0568
100583.0748
100583.0944
100583.116
100583.1399
100583.1665
100583.1963
100583.2298
100583.2682
100583.3127
100583.3652
100583.4279
100583.5037
100583.3597
100575.4067
100575.5237
100575.5238
100575.5244
100575.5261
100575.5284
100575.531
100575.5338
100575.5369
100575.5402
100575.5439
100575.5479
100575.5524
100575.5574
100575.563
100575.569
100575.5756
100575.5831
100575.5911
100575.5999
100575.6094
100575.6198
100575.6315
100575.6439
100575.6574
100575.6721
100575.6881
100575.7062
100575.7255
100575.7467
100575.7704
100575.7972
100575.8268
100575.8603
100575.899
100575.9448
100575.9995
100576.0676
100576.1555
100575.5735
100563.9745
100155.0388
100155.002
100155.0134
100155.0698
100155.1448
100155.2283
100155.3161
100155.4086
100155.5083
100155.6176
100155.7388
100155.8741
100156.0251
100156.1923
100156.3736
100156.5655
100156.7959
100157.0324
100157.2978
100157.585
100157.891
100158.2507
100158.6185
100159.0255
100159.4668
100159.9453
100160.4991
100161.0742
100161.7068
100162.4137
100163.2308
100164.1116
100165.1081
100166.2643
100167.6372
100169.2489
100171.2673
100173.8765
100178.4151
100192.5934
100138.9419
100138.9466
100138.9476
100138.9479
100138.9482
100138.9484
100138.9486
100138.9488
100138.949
100138.9492
100138.9494
100138.9496
100138.9498
100138.9501
100138.9504
100138.9506
100138.9511
100138.9515
100138.9519
100138.9524
100138.9529
100138.9539
100138.9545
100138.9554
100138.9563
100138.9574
100138.9592
100138.9607
100138.9624
100138.9648
100138.9682
100138.9718
100138.9765
100138.9838
100138.9952
100139.0134
100139.0503
100139.1099
100139.1304
100138.9464
100138.9112
100138.9112
100138.9112
100138.9112
100138.9112
100138.9112
100138.9112
100138.9112
100138.9112
100138.9112
100138.9112
100138.9112