/*--------------------------------*- C++ -*----------------------------------*\
| =========                 |                                                 |
| \\      /  F ield         | OpenFOAM: The Open Source CFD Toolbox           |
|  \\    /   O peration     | Version:  v1912                                 |
|   \\  /    A nd           | Website:  www.openfoam.com                      |
|    \\/     M anipulation  |                                                 |
\*---------------------------------------------------------------------------*/
FoamFile
{
    version     2.0;
    format      ascii;
    class       surfaceScalarField;
    location    "0.1";
    object      phi;
}
// * * * * * * * * * * * * * * * * * * * * * * * * * * * * * * * * * * * * * //

dimensions      [0 3 -1 0 0 0 0];
oriented        oriented;


internalField   nonuniform List<scalar> 
9440
(
-2.343025221e-12
2.343025191e-12
-9.344772014e-12
7.00176611e-12
-2.086891918e-11
1.152418675e-11
-3.668963096e-11
1.582077082e-11
-5.648411787e-11
1.979456546e-11
-7.982744877e-11
2.334342877e-11
-1.061848977e-10
2.635756837e-11
-1.349020566e-10
2.871730134e-11
-1.651923804e-10
3.029048909e-11
-1.961216872e-10
3.092949758e-11
-2.265890297e-10
3.046755857e-11
-2.553031009e-10
2.871431503e-11
-2.807531205e-10
2.545029503e-11
-3.011728369e-10
2.04200176e-11
-3.144957933e-10
1.332329391e-11
-3.182991672e-10
3.803743149e-12
-3.097330968e-10
-8.565667197e-12
-2.854305797e-10
-2.430208165e-11
-2.413918135e-10
-4.403829033e-11
-1.728338191e-10
-6.855748219e-11
-7.399265218e-11
-9.884062374e-11
6.213985216e-11
-1.361319172e-10
2.441717356e-10
-1.820312612e-10
4.827998055e-10
-2.386274098e-10
7.914920483e-10
-3.08691531e-10
1.187460351e-09
-3.959675641e-10
1.693077892e-09
-5.056167494e-10
2.337996945e-09
-6.449182212e-10
3.162408025e-09
-8.244102081e-10
4.222226952e-09
-1.059817997e-09
5.597689504e-09
-1.375461592e-09
7.408287422e-09
-1.810596899e-09
9.840269911e-09
-2.431981441e-09
1.320105547e-08
-3.36078446e-09
1.803699087e-08
-4.835934253e-09
2.54190718e-08
-7.382079768e-09
3.774404996e-08
-1.232497694e-08
6.144496364e-08
-2.370091245e-08
1.181124064e-07
-5.666744173e-08
1.296592477e-07
-2.414677432e-12
4.757721998e-12
-9.61171033e-12
1.419885415e-11
-2.146145445e-11
2.337402152e-11
-3.773801742e-11
3.209745897e-11
-5.811952394e-11
4.017623419e-11
-8.218214387e-11
4.740624882e-11
-1.093925426e-10
5.356820739e-11
-1.390981097e-10
5.842314776e-11
-1.705146198e-10
6.170732389e-11
-2.027109099e-10
6.312615655e-11
-2.345899513e-10
6.234701986e-11
-2.648655566e-10
5.899039252e-11
-2.920336955e-10
5.261895836e-11
-3.143369929e-10
4.272390434e-11
-3.297207785e-10
2.870772119e-11
-3.357780811e-10
9.861745858e-12
-3.29680337e-10
-1.466264085e-11
-3.080895712e-10
-4.589202044e-11
-2.670457033e-10
-8.508126463e-11
-2.018207179e-10
-1.337815103e-10
-1.067275313e-10
-1.939327864e-10
2.51335625e-11
-2.679919115e-10
2.022154857e-10
-3.591120151e-10
4.349893539e-10
-4.714000436e-10
7.365901567e-10
-6.102910217e-10
1.123728305e-09
-7.831043251e-10
1.618004039e-09
-9.998910128e-10
2.247846737e-09
-1.274759372e-09
3.051448928e-09
-1.628010772e-09
4.081337023e-09
-2.089704374e-09
5.411724812e-09
-2.705847601e-09
7.150783728e-09
-3.54965395e-09
9.461940359e-09
-4.743136122e-09
1.260231378e-08
-6.501155906e-09
1.699412294e-08
-9.227741309e-09
2.335502796e-08
-1.374298269e-08
3.288573233e-08
-2.18556791e-08
4.70491151e-08
-3.786429299e-08
6.294226085e-08
-7.256487715e-08
2.060948189e-07
-2.440631127e-12
7.198368701e-12
-9.721162408e-12
2.147943124e-11
-2.171125085e-11
3.536418568e-11
-3.818834545e-11
4.857465969e-11
-5.883476181e-11
6.0822786e-11
-8.323232306e-11
7.180397902e-11
-1.10855011e-10
8.119109595e-11
-1.410594509e-10
8.862782504e-11
-1.73072947e-10
9.372109372e-11
-2.059786363e-10
9.603216061e-11
-2.386972001e-10
9.506594007e-11
-2.699644171e-10
9.025800882e-11
-2.983035778e-10
8.09585598e-11
-3.219915283e-10
6.64123472e-11
-3.390166408e-10
4.5733377e-11
-3.470265811e-10
1.787228234e-11
-3.432627778e-10
-1.842579598e-11
-3.244777161e-10
-6.467637916e-11
-2.868295278e-10
-1.227286991e-10
-2.257464517e-10
-1.948637705e-10
-1.357505766e-10
-2.83927798e-10
-1.022609681e-11
-3.935154727e-10
1.588885846e-10
-5.282257041e-10
3.815160536e-10
-6.940264722e-10
6.700076311e-10
-8.987814838e-10
1.039929832e-09
-1.153025353e-09
1.511173251e-09
-1.471133194e-09
2.109540607e-09
-1.873125412e-09
2.869059429e-09
-2.387528233e-09
3.835404522e-09
-3.056048006e-09
5.071026323e-09
-3.941467895e-09
6.662858294e-09
-5.141484343e-09
8.733643387e-09
-6.813919572e-09
1.145702515e-08
-9.22453598e-09
1.507026167e-08
-1.284097606e-08
1.98481001e-08
-1.852081933e-08
2.586972904e-08
-2.787730617e-08
3.188052747e-08
-4.387508954e-08
2.992366397e-08
-7.06168973e-08
2.495399474e-07
-2.48086107e-12
9.67924429e-12
-9.884395099e-12
2.888300835e-11
-2.208209447e-11
4.756195655e-11
-3.885571342e-11
6.534837754e-11
-5.989383699e-11
8.186103889e-11
-8.478670257e-11
9.669700273e-11
-1.130191434e-10
1.09423728e-10
-1.439614907e-10
1.195703955e-10
-1.768581367e-10
1.266179996e-10
-2.108134034e-10
1.299877215e-10
-2.447741814e-10
1.290270542e-10
-2.775087128e-10
1.229929182e-10
-3.075806381e-10
1.110309091e-10
-3.333172183e-10
9.214939516e-11
-3.527701917e-10
6.518686677e-11
-3.636674774e-10
2.87701292e-11
-3.633530418e-10
-1.873962045e-11
-3.487115985e-10
-7.931715509e-11
-3.160736148e-10
-1.553659736e-10
-2.610944108e-10
-2.498422065e-10
-1.785990138e-10
-3.664223712e-10
-6.238120586e-11
-5.097324045e-10
9.505912917e-11
-6.856651102e-10
3.028618374e-10
-9.018281962e-10
5.722673215e-10
-1.168185915e-09
9.172352337e-10
-1.497992157e-09
1.35527892e-09
-1.909175709e-09
1.908596122e-09
-2.426441369e-09
2.60559341e-09
-3.084524225e-09
3.482901943e-09
-3.933355166e-09
4.587899947e-09
-5.046464478e-09
5.981406216e-09
-6.53498912e-09
7.73900094e-09
-8.571512731e-09
9.945616132e-09
-1.143114958e-08
1.266632737e-08
-1.556168561e-08
1.584152391e-08
-2.169601417e-08
1.89589852e-08
-3.099476568e-08
2.014218341e-08
-4.505828594e-08
1.34261499e-08
-6.391174883e-08
2.766398778e-07
-2.534571612e-12
1.221383016e-11
-1.01007587e-11
3.644923721e-11
-2.257323953e-11
6.003450581e-11
-3.973937197e-11
8.251460629e-11
-6.129594239e-11
1.034177337e-10
-8.684421609e-11
1.222454302e-10
-1.158832617e-10
1.384629592e-10
-1.478013651e-10
1.514887151e-10
-1.818652894e-10
1.606821734e-10
-2.172070482e-10
1.653297691e-10
-2.528077481e-10
1.646280772e-10
-2.874779335e-10
1.576634727e-10
-3.198337328e-10
1.433871149e-10
-3.482678227e-10
1.205839381e-10
-3.709139991e-10
8.783354448e-11
-3.856038435e-10
4.346051526e-11
-3.898133678e-10
-1.452950157e-11
-3.805970147e-10
-8.853286718e-11
-3.545056026e-10
-1.814566972e-10
-3.074835691e-10
-2.968635004e-10
-2.347397606e-10
-4.391653904e-10
-1.305838709e-10
-6.138874564e-10
1.178151205e-11
-8.280295865e-10
2.005246141e-10
-1.090570352e-09
4.455203373e-10
-1.413180629e-09
7.587754015e-10
-1.811246148e-09
1.154955575e-09
-2.305354764e-09
1.652017405e-09
-2.923501998e-09
2.271903785e-09
-3.704409358e-09
3.041150467e-09
-4.702600517e-09
3.990960427e-09
-5.996273063e-09
5.155585382e-09
-7.699612635e-09
6.566072503e-09
-9.98199834e-09
8.23210419e-09
-1.309717973e-08
1.009445953e-08
-1.742403932e-08
1.190865966e-08
-2.351021265e-08
1.298361861e-08
-3.206972292e-08
1.168885515e-08
-4.376352073e-08
4.191922746e-09
-5.642725844e-08
2.947149084e-07
-2.601231329e-12
1.481507527e-11
-1.036881956e-11
4.421686602e-11
-2.318150191e-11
7.284725532e-11
-4.083355536e-11
1.001667534e-10
-6.303181902e-11
1.25616117e-10
-8.939106743e-11
1.486048279e-10
-1.194277888e-10
1.684998572e-10
-1.525522198e-10
1.846133552e-10
-1.880584303e-10
1.961886278e-10
-2.251121826e-10
2.02383799e-10
-2.627361975e-10
2.022524077e-10
-2.997923668e-10
1.947199937e-10
-3.349603585e-10
1.785555017e-10
-3.667118331e-10
1.523358505e-10
-3.932793576e-10
1.144015531e-10
-4.126188758e-10
6.280056069e-11
-4.223642154e-10
-4.783586388e-12
-4.197718207e-10
-9.112464064e-11
-4.016534676e-10
-1.995743864e-10
-3.642941395e-10
-3.34222112e-10
-3.033519015e-10
-5.001068593e-10
-2.137358002e-10
-7.035027495e-10
-8.945828584e-11
-9.523062369e-10
7.654089761e-11
-1.256568618e-09
2.925987532e-10
-1.629237515e-09
5.685537525e-10
-2.087200116e-09
9.159669582e-10
-2.652766888e-09
1.348273824e-09
-3.355807705e-09
1.880720557e-09
-4.236854894e-09
2.529758562e-09
-5.351637256e-09
3.311191733e-09
-6.777704898e-09
4.23556298e-09
-8.623982498e-09
5.297590026e-09
-1.104402392e-08
6.453097186e-09
-1.42526854e-08
7.570813425e-09
-1.854175398e-08
8.338130403e-09
-2.427752804e-08
8.10011633e-09
-3.183170718e-08
5.667987242e-09
-4.133138994e-08
-1.388415192e-09
-4.93871869e-08
3.074429131e-07
-2.680366464e-12
1.749545495e-11
-1.068688091e-11
5.222341958e-11
-2.390305982e-11
8.606349871e-11
-4.213132654e-11
1.183951102e-10
-6.509031195e-11
1.485752206e-10
-9.241061261e-11
1.759252726e-10
-1.236290887e-10
1.997185078e-10
-1.581816139e-10
2.191660835e-10
-1.953940904e-10
2.334013405e-10
-2.344715383e-10
2.414615188e-10
-2.744849785e-10
2.422661513e-10
-3.143557346e-10
2.345910956e-10
-3.528368012e-10
2.170369534e-10
-3.884906879e-10
1.879901603e-10
-4.196631417e-10
1.45574474e-10
-4.444520314e-10
8.758995997e-11
-4.60670464e-10
1.143539574e-11
-4.658031619e-10
-8.59913403e-11
-4.569550818e-10
-2.084218254e-10
-4.307912582e-10
-3.603852492e-10
-3.83467279e-10
-5.474301039e-10
-3.105501524e-10
-7.764191004e-10
-2.069319249e-10
-1.055923623e-09
-6.674189664e-11
-1.396757768e-09
1.167302473e-10
-1.812708726e-09
3.510704535e-10
-2.321539322e-09
6.446824489e-10
-2.946377848e-09
1.006525871e-09
-3.717650016e-09
1.445437052e-09
-4.675764916e-09
1.968625547e-09
-5.874824522e-09
2.578563548e-09
-7.387641611e-09
3.266796568e-09
-9.312214191e-09
4.001977531e-09
-1.177920347e-08
4.707483497e-09
-1.495818993e-08
5.221697296e-09
-1.905596626e-08
5.234300121e-09
-2.429012931e-08
4.205649338e-09
-3.080305478e-08
1.328459053e-09
-3.845419799e-08
-4.874918007e-09
-4.320791078e-08
3.168642155e-07
-2.771467436e-12
2.026693539e-11
-1.105296226e-11
6.050495267e-11
-2.473342496e-11
9.974402454e-11
-4.362454493e-11
1.372863186e-10
-6.74583466e-11
1.724091355e-10
-9.588336369e-11
2.043504297e-10
-1.284595199e-10
2.322948322e-10
-1.646516543e-10
2.55358417e-10
-2.038215635e-10
2.725714796e-10
-2.452184269e-10
2.828586474e-10
-2.87967434e-10
2.85015456e-10
-3.310563685e-10
2.77680364e-10
-3.733199173e-10
2.593008756e-10
-4.13421415e-10
2.28092067e-10
-4.498316681e-10
1.819851826e-10
-4.80804596e-10
1.185633866e-10
-5.043493695e-10
3.498070683e-11
-5.181988529e-10
-7.214127851e-11
-5.19774481e-10
-2.068455747e-10
-5.061483665e-10
-3.740106997e-10
-4.740042002e-10
-5.795735542e-10
-4.196002307e-10
-8.308223212e-10
-3.387414212e-10
-1.136781634e-09
-2.267739549e-10
-1.508724388e-09
-7.862465915e-11
-1.960857123e-09
1.110729155e-10
-2.511235942e-09
3.476889289e-10
-3.182992863e-09
6.360130627e-10
-4.005973074e-09
9.791415738e-10
-5.018892317e-09
1.376417973e-09
-6.272099748e-09
1.819715166e-09
-7.830937557e-09
2.286855586e-09
-9.779353332e-09
2.730279754e-09
-1.222262627e-08
3.058352531e-09
-1.528626131e-08
3.106855325e-09
-1.910446758e-08
2.602089678e-09
-2.378536215e-08
1.131730646e-09
-2.933269417e-08
-1.828661904e-09
-3.549380378e-08
-7.144851791e-09
-3.792137307e-08
3.241323577e-07
-2.873972328e-12
2.314092016e-11
-1.146482203e-11
6.909583953e-11
-2.566749756e-11
1.139467615e-10
-4.530396529e-11
1.569228727e-10
-7.012108431e-11
1.972263661e-10
-9.978722903e-11
2.340167119e-10
-1.338877842e-10
2.663955561e-10
-1.719195018e-10
2.933903278e-10
-2.132836238e-10
3.139358267e-10
-2.572777282e-10
3.268530085e-10
-3.030861753e-10
3.308241944e-10
-3.497690778e-10
3.243635925e-10
-3.96249681e-10
3.057818481e-10
-4.413001152e-10
2.73142904e-10
-4.835254513e-10
2.242109595e-10
-5.21346215e-10
1.56384632e-10
-5.52979581e-10
6.661459111e-11
-5.764198442e-10
-4.870044581e-11
-5.894192476e-10
-1.938455694e-10
-5.894715895e-10
-3.739577104e-10
-5.738019783e-10
-5.952424795e-10
-5.393690351e-10
-8.652545337e-10
-4.828900313e-10
-1.193259862e-09
-4.009071868e-10
-1.590706407e-09
-2.899253604e-10
-2.071838085e-09
-1.466693578e-10
-2.65449102e-09
3.145531297e-11
-3.36111657e-09
2.45559135e-10
-4.220075868e-09
4.938986042e-10
-5.267230705e-09
7.695774835e-10
-6.547777491e-09
1.0567436e-09
-8.118102468e-09
1.324443984e-09
-1.004705248e-08
1.517051207e-09
-1.241523216e-08
1.540263207e-09
-1.530947197e-08
1.242987675e-09
-1.880719062e-08
3.999309309e-10
-2.294230395e-08
-1.288659267e-09
-2.764410246e-08
-4.15204207e-09
-3.263041929e-08
-8.698032182e-09
-3.340886679e-08
3.299260797e-07
-2.987263443e-12
2.612819588e-11
-1.191997904e-11
7.802859211e-11
-2.669962576e-11
1.287264699e-10
-4.715934256e-11
1.773826745e-10
-7.306209909e-11
2.231292348e-10
-1.040977814e-10
2.650525317e-10
-1.398793277e-10
3.021772658e-10
-1.799379371e-10
3.334491318e-10
-2.237173221e-10
3.577154342e-10
-2.705669884e-10
3.737029329e-10
-3.19734567e-10
3.799920635e-10
-3.703571845e-10
3.749865318e-10
-4.214519497e-10
3.568769743e-10
-4.71905709e-10
3.235970621e-10
-5.204643026e-10
2.727699898e-10
-5.657218145e-10
2.016426217e-10
-6.061105688e-10
1.070038571e-10
-6.398931607e-10
-1.491730204e-11
-6.65158305e-10
-1.685798281e-10
-6.798243637e-10
-3.592910258e-10
-6.816551917e-10
-5.934109705e-10
-6.682971654e-10
-8.786118511e-10
-6.373495339e-10
-1.224206735e-09
-5.864897233e-10
-1.641565409e-09
-5.136873249e-10
-2.144639646e-09
-4.175567542e-10
-2.750620679e-09
-2.979319524e-10
-3.48074044e-09
-1.567888299e-10
-4.361217981e-09
2.882483564e-13
-5.424306736e-09
1.618110756e-10
-6.70929922e-09
3.06863209e-10
-8.263153423e-09
3.99855897e-10
-1.014004397e-08
3.831192398e-10
-1.239849421e-08
1.673918802e-10
-1.509374329e-08
-3.781158746e-10
-1.826168148e-08
-1.430649425e-09
-2.188976896e-08
-3.20116181e-09
-2.587358858e-08
-5.889935833e-09
-2.994164359e-08
-9.803535976e-09
-2.953154281e-08
3.346693842e-07
-3.110670695e-12
2.923887888e-11
-1.24157371e-11
8.733369574e-11
-2.782366598e-11
1.441344601e-10
-4.917954735e-11
1.987386423e-10
-7.626356473e-11
2.502133642e-10
-1.087885475e-10
2.975776529e-10
-1.463967575e-10
3.397856424e-10
-1.886559596e-10
3.757085284e-10
-2.350548032e-10
4.041145023e-10
-2.849975579e-10
4.236459426e-10
-3.377982949e-10
4.327930871e-10
-3.92674642e-10
4.298632038e-10
-4.487413186e-10
4.129440109e-10
-5.050037859e-10
3.798599241e-10
-5.603525049e-10
3.281191392e-10
-6.135585905e-10
2.548491814e-10
-6.632720982e-10
1.567178732e-10
-7.080246977e-10
2.983584445e-11
-7.462392887e-10
-1.30364645e-10
-7.762510104e-10
-3.292786894e-10
-7.963458808e-10
-5.733154269e-10
-8.048268797e-10
-8.701301554e-10
-8.001206811e-10
-1.228912191e-09
-7.809480032e-10
-1.660737295e-09
-7.465911254e-10
-2.178995704e-09
-6.973072164e-10
-2.799903697e-09
-6.349611784e-10
-3.543085552e-09
-5.639853566e-10
-4.432192819e-09
-4.928195442e-10
-5.495471507e-09
-4.360296256e-10
-6.766088062e-09
-4.173441997e-10
-8.281837691e-09
-4.738199325e-10
-1.008356706e-08
-6.61132195e-10
-1.221118069e-08
-1.059359986e-09
-1.469551421e-08
-1.777207025e-09
-1.754383307e-08
-2.94999929e-09
-2.07169753e-08
-4.722797191e-09
-2.410078922e-08
-7.213114775e-09
-2.74513243e-08
-1.061562904e-08
-2.616740126e-08
3.386402263e-07
-3.243478129e-12
3.248236927e-11
-1.294921156e-11
9.703946673e-11
-2.903304608e-11
1.602183574e-10
-5.135268334e-11
2.210583677e-10
-7.970644648e-11
2.785672419e-10
-1.138312985e-10
3.317026449e-10
-1.534002721e-10
3.793547846e-10
-1.980193954e-10
4.203278507e-10
-2.472241791e-10
4.533195125e-10
-3.00475772e-10
4.768977966e-10
-3.571569516e-10
4.894745637e-10
-4.165681705e-10
4.892747464e-10
-4.779239926e-10
4.743001971e-10
-5.403504451e-10
4.422867783e-10
-6.028839391e-10
3.90653066e-10
-6.644728535e-10
3.164385688e-10
-7.239833163e-10
2.162288432e-10
-7.802113672e-10
8.606444135e-11
-8.319047373e-10
-7.867068626e-11
-8.777984969e-10
-2.833843098e-10
-9.166726302e-10
-5.344406284e-10
-9.474406896e-10
-8.393613969e-10
-9.69284024e-10
-1.207068118e-09
-9.818530716e-10
-1.648167452e-09
-9.855669063e-10
-2.175281047e-09
-9.820557508e-10
-2.803413974e-09
-9.748061389e-10
-3.550334248e-09
-9.700933197e-10
-4.436904667e-09
-9.783079885e-10
-5.487255809e-09
-1.015799315e-09
-6.728595676e-09
-1.107338315e-09
-8.190297544e-09
-1.289214268e-09
-9.901689951e-09
-1.612704131e-09
-1.188768958e-08
-2.147071088e-09
-1.416114597e-08
-2.980166826e-09
-1.671073597e-08
-4.213128819e-09
-1.948401191e-08
-5.943825837e-09
-2.237009076e-08
-8.238063163e-09
-2.515708526e-08
-1.122806705e-08
-2.321738117e-08
3.42027791e-07
-3.384928997e-12
3.586731091e-11
-1.351735587e-11
1.071719326e-10
-3.032082954e-11
1.770218967e-10
-5.366620503e-11
2.444038346e-10
-8.337069777e-11
3.082718543e-10
-1.191963521e-10
3.67528446e-10
-1.608481039e-10
4.210067096e-10
-2.079715227e-10
4.674514731e-10
-2.601503694e-10
5.054985951e-10
-3.169041115e-10
5.336518047e-10
-3.776856162e-10
5.502563677e-10
-4.418793648e-10
5.534688279e-10
-5.088005891e-10
5.412217906e-10
-5.776960046e-10
5.111825987e-10
-6.477469947e-10
4.60704498e-10
-7.180764729e-10
3.867685304e-10
-7.877612587e-10
2.859141477e-10
-8.55852345e-10
1.541560789e-10
-9.214068761e-10
-1.311555988e-11
-9.835356822e-10
-2.212548771e-10
-1.041475319e-09
-4.765003248e-10
-1.094693124e-09
-7.861428727e-10
-1.143040118e-09
-1.158720383e-09
-1.186969996e-09
-1.604236779e-09
-1.227852255e-09
-2.134397967e-09
-1.268417088e-09
-2.762848256e-09
-1.313378035e-09
-3.50537238e-09
-1.370291709e-09
-4.379990021e-09
-1.450720474e-09
-5.406826011e-09
-1.571756269e-09
-6.607558821e-09
-1.757912854e-09
-8.004139815e-09
-2.043275543e-09
-9.616326089e-09
-2.473535322e-09
-1.145742855e-08
-3.107061793e-09
-1.352761823e-08
-4.013445442e-09
-1.580435098e-08
-5.267095218e-09
-1.823036075e-08
-6.932872537e-09
-2.070431202e-08
-9.044897566e-09
-2.304505847e-08
-1.170033241e-08
-2.060319484e-08
3.449649269e-07
-3.534233485e-12
3.940155749e-11
-1.411699028e-11
1.177547303e-10
-3.167978014e-11
1.945847551e-10
-5.610703878e-11
2.688311884e-10
-8.723545556e-11
3.39400394e-10
-1.248528727e-10
4.051460163e-10
-1.686969476e-10
4.648509655e-10
-2.184536761e-10
5.172084137e-10
-2.737559492e-10
5.608011131e-10
-3.341823364e-10
5.940784683e-10
-3.992563691e-10
6.153307094e-10
-4.684467146e-10
6.22659521e-10
-5.411687865e-10
6.139442406e-10
-6.167884864e-10
5.86802718e-10
-6.946291348e-10
5.385455966e-10
-7.739828834e-10
4.661227721e-10
-8.541286457e-10
3.660604432e-10
-9.343590594e-10
2.343870564e-10
-1.014020352e-09
6.654634163e-11
-1.092569413e-09
-1.427051738e-10
-1.169655325e-09
-3.9941373e-10
-1.24523561e-09
-7.105618672e-10
-1.319738965e-09
-1.084216276e-09
-1.394290892e-09
-1.529684036e-09
-1.471025352e-09
-2.057662665e-09
-1.553511076e-09
-2.680361629e-09
-1.647327338e-09
-3.411555176e-09
-1.760823582e-09
-4.266492797e-09
-1.906096145e-09
-5.261552398e-09
-2.100190353e-09
-6.413463537e-09
-2.366476033e-09
-7.737852977e-09
-2.736021039e-09
-9.246779902e-09
-3.248568949e-09
-1.094487939e-08
-3.952384439e-09
-1.282380145e-08
-4.901790458e-09
-1.485494361e-08
-6.150862712e-09
-1.69812871e-08
-7.741780927e-09
-1.911339237e-08
-9.689573827e-09
-2.109726381e-08
-1.207151438e-08
-1.826351504e-08
3.475474503e-07
-3.690574977e-12
4.309214627e-11
-1.474482842e-11
1.288090264e-10
-3.310242559e-11
2.129424245e-10
-5.866169819e-11
2.943905617e-10
-9.127922824e-11
3.72018054e-10
-1.307691525e-10
4.446361011e-10
-1.769023777e-10
5.109843833e-10
-2.294058334e-10
5.697120918e-10
-2.879619429e-10
6.193574778e-10
-3.522085696e-10
6.583253785e-10
-4.217397149e-10
6.848621806e-10
-4.961074865e-10
6.970276451e-10
-5.74825818e-10
6.926629646e-10
-6.573768578e-10
6.693541903e-10
-7.432210483e-10
6.243902533e-10
-8.318123359e-10
5.547145667e-10
-9.226205444e-10
4.568691985e-10
-1.015163545e-09
3.269306341e-10
-1.109052804e-09
1.604362227e-10
-1.204057429e-09
-4.769989167e-11
-1.300191136e-09
-3.03279329e-10
-1.397834318e-09
-6.129179365e-10
-1.497899207e-09
-9.841506098e-10
-1.60205328e-09
-1.425529132e-09
-1.713017374e-09
-1.946697714e-09
-1.834959472e-09
-2.558418617e-09
-1.974007635e-09
-3.272506053e-09
-2.138897665e-09
-4.101601764e-09
-2.341761964e-09
-5.058687031e-09
-2.599035577e-09
-6.156188835e-09
-2.932393127e-09
-7.404494251e-09
-3.369524492e-09
-8.809647347e-09
-3.944382548e-09
-1.037002006e-08
-4.696318085e-09
-1.207186462e-08
-5.667274536e-09
-1.388398579e-08
-6.89614656e-09
-1.575241365e-08
-8.409723343e-09
-1.759981417e-08
-1.021179295e-08
-1.929519239e-08
-1.236809829e-08
-1.615029489e-08
3.498460784e-07
-3.85311653e-12
4.694527756e-11
-1.53975038e-11
1.403534592e-10
-3.458111705e-11
2.321261142e-10
-6.131639547e-11
3.211259472e-10
-9.548008098e-11
4.061818774e-10
-1.369128915e-10
4.860690816e-10
-1.854192444e-10
5.594909347e-10
-2.407671603e-10
6.250602425e-10
-3.026885742e-10
6.812791587e-10
-3.708802846e-10
7.265173885e-10
-4.450059323e-10
7.589881647e-10
-5.246994582e-10
7.767215449e-10
-6.095706805e-10
7.775345954e-10
-6.99213837e-10
7.58997796e-10
-7.932202367e-10
7.183971359e-10
-8.911964414e-10
6.526912946e-10
-9.927900159e-10
5.584633347e-10
-1.097725383e-09
4.318666016e-10
-1.205853195e-09
2.685646823e-10
-1.317218183e-09
6.366577585e-11
-1.432149256e-09
-1.883475363e-10
-1.551381394e-09
-4.936850304e-10
-1.676218322e-09
-8.593128848e-10
-1.80874584e-09
-1.293000762e-09
-1.952108354e-09
-1.803334313e-09
-2.110861824e-09
-2.399664209e-09
-2.291415512e-09
-3.091951377e-09
-2.502566825e-09
-3.89044943e-09
-2.756114319e-09
-4.805138441e-09
-3.067507227e-09
-5.844794808e-09
-3.456431037e-09
-7.015569237e-09
-3.947144413e-09
-8.318932756e-09
-4.568259107e-09
-9.74890407e-09
-5.351518529e-09
-1.128860386e-08
-6.32903816e-09
-1.290646479e-08
-7.528521598e-09
-1.455292877e-08
-8.966418984e-09
-1.616191536e-08
-1.064010702e-08
-1.762150249e-08
-1.26085936e-08
-1.42255758e-08
3.519139833e-07
-4.021006978e-12
5.096629989e-11
-1.607159459e-11
1.524040946e-10
-3.610808691e-11
2.521626871e-10
-6.405714607e-11
3.490751188e-10
-9.981580097e-11
4.419406765e-10
-1.432514501e-10
5.29504908e-10
-1.942020335e-10
6.104417286e-10
-2.524765244e-10
6.833349765e-10
-3.178559505e-10
7.466588637e-10
-3.900952352e-10
7.987569866e-10
-4.689262276e-10
8.378195027e-10
-5.540624293e-10
8.618581344e-10
-6.452060723e-10
8.686786556e-10
-7.420583501e-10
8.558505354e-10
-8.443340535e-10
8.206733397e-10
-9.517819116e-10
7.601396898e-10
-1.064212642e-09
6.70894649e-10
-1.18153713e-09
5.491917073e-10
-1.303817808e-09
3.908460217e-10
-1.431337541e-09
1.911862153e-10
-1.564690747e-09
-5.499358705e-11
-1.704900614e-09
-3.534743675e-10
-1.853575024e-09
-7.106376496e-10
-2.01310416e-09
-1.133470744e-09
-2.186910712e-09
-1.629526845e-09
-2.379757494e-09
-2.206816455e-09
-2.59811722e-09
-2.873590628e-09
-2.850599522e-09
-3.637966075e-09
-3.148409389e-09
-4.507327447e-09
-3.505784305e-09
-5.487418743e-09
-3.940311614e-09
-6.581040715e-09
-4.472960806e-09
-7.786282306e-09
-5.127587927e-09
-9.094275639e-09
-5.929593245e-09
-1.048659719e-08
-6.903400698e-09
-1.193265595e-08
-8.068540555e-09
-1.338778744e-08
-9.434580669e-09
-1.479587382e-08
-1.099544525e-08
-1.606063602e-08
-1.28061855e-08
-1.245917587e-08
3.537918361e-07
-4.193386658e-12
5.515970301e-11
-1.676364699e-11
1.64974406e-10
-3.767550207e-11
2.730746264e-10
-6.686986563e-11
3.782696006e-10
-1.042640553e-10
4.793350171e-10
-1.497520802e-10
5.749931189e-10
-2.032052079e-10
6.638950756e-10
-2.644729469e-10
7.446029673e-10
-3.333846773e-10
8.155708826e-10
-4.097522313e-10
8.751248625e-10
-4.9337377e-10
9.214414038e-10
-5.840395304e-10
9.525242933e-10
-6.815400218e-10
9.661795822e-10
-7.856775458e-10
9.599885366e-10
-8.962821675e-10
9.31278474e-10
-1.013233472e-09
8.770915479e-10
-1.136489914e-09
7.941516912e-10
-1.266128032e-09
6.788304581e-10
-1.402394208e-09
5.271128815e-10
-1.545772635e-09
3.345653652e-10
-1.697074167e-09
9.630870123e-11
-1.857548094e-09
-1.929996243e-10
-2.029025435e-09
-5.39159465e-10
-2.21409915e-09
-9.483961251e-10
-2.416344174e-09
-1.427280879e-09
-2.640579518e-09
-1.982580126e-09
-2.893169865e-09
-2.620999234e-09
-3.182354425e-09
-3.348780433e-09
-3.518574791e-09
-4.171105926e-09
-3.914744003e-09
-5.09124836e-09
-4.386367567e-09
-6.109415897e-09
-4.951379162e-09
-7.221269445e-09
-5.629503455e-09
-8.416150002e-09
-6.440935841e-09
-9.675163434e-09
-7.404141779e-09
-1.096944861e-08
-8.532723727e-09
-1.225920398e-08
-9.831714944e-09
-1.349688119e-08
-1.129338876e-08
-1.459896026e-08
-1.297046501e-08
-1.08269273e-08
3.555112129e-07
-4.369392692e-12
5.952911304e-11
-1.747019547e-11
1.780752616e-10
-3.927551005e-11
2.948800294e-10
-6.974045506e-11
4.087346687e-10
-1.088025268e-10
5.183972469e-10
-1.563821352e-10
6.225729199e-10
-2.123834893e-10
7.198966578e-10
-2.766959953e-10
8.089157345e-10
-3.491963739e-10
8.880715615e-10
-4.297518225e-10
9.556806476e-10
-5.182245607e-10
1.00991451e-09
-6.144782887e-10
1.048778432e-09
-7.183872135e-10
1.07008895e-09
-8.29848373e-10
1.071450183e-09
-9.487984037e-10
1.050229033e-09
-1.075235975e-09
1.003529684e-09
-1.209251528e-09
9.281678547e-10
-1.351066375e-09
8.206459499e-10
-1.501083459e-09
6.771306592e-10
-1.659952856e-09
4.934355065e-10
-1.828655466e-09
2.6501209e-10
-2.008608864e-09
-1.304539109e-11
-2.201794749e-09
-3.459727111e-10
-2.41091993e-09
-7.392700121e-10
-2.639605411e-09
-1.198594427e-09
-2.89260484e-09
-1.729579686e-09
-3.176043938e-09
-2.337559058e-09
-3.497665131e-09
-3.027158143e-09
-3.867047014e-09
-3.801722866e-09
-4.29574718e-09
-4.662546992e-09
-4.797286185e-09
-5.607875617e-09
-5.38686567e-09
-6.631688665e-09
-6.080684471e-09
-7.722329852e-09
-6.89471444e-09
-8.861132064e-09
-7.842839029e-09
-1.002132261e-08
-8.934384686e-09
-1.116765678e-08
-1.01714393e-08
-1.225982516e-08
-1.15457071e-08
-1.32246905e-08
-1.310854219e-08
-9.309339682e-09
3.570969535e-07
-4.548163657e-12
6.407729463e-11
-1.818778182e-11
1.917149351e-10
-4.090028293e-11
3.17592621e-10
-7.265487714e-11
4.404893896e-10
-1.134090398e-10
5.591515709e-10
-1.63109246e-10
6.722733224e-10
-2.216921128e-10
7.784797572e-10
-2.890861215e-10
8.763100092e-10
-3.652141098e-10
9.641998541e-10
-4.499968598e-10
1.040463737e-09
-5.433581072e-10
1.103276132e-09
-6.452314758e-10
1.150652214e-09
-7.555699741e-10
1.180427899e-09
-8.743587341e-10
1.190239433e-09
-1.001632032e-09
1.177502866e-09
-1.137495748e-09
1.139393971e-09
-1.282156679e-09
1.072829406e-09
-1.435960526e-09
9.74450459e-10
-1.599440508e-09
8.406113451e-10
-1.773379046e-09
6.673747993e-10
-1.958885083e-09
4.505189098e-10
-2.157490526e-09
1.855609037e-10
-2.371265311e-09
-1.32197041e-10
-2.602953641e-09
-5.075807545e-10
-2.856135694e-09
-9.454113864e-10
-3.135404478e-09
-1.450309875e-09
-3.446550712e-09
-2.026411734e-09
-3.796737753e-09
-2.676969984e-09
-4.194636088e-09
-3.403823336e-09
-4.650471905e-09
-4.20670996e-09
-5.175923324e-09
-5.082422913e-09
-5.783777938e-09
-6.023832736e-09
-6.487260895e-09
-7.018845531e-09
-7.298943733e-09
-8.049447795e-09
-8.229204212e-09
-9.091060739e-09
-9.28430057e-09
-1.011255887e-08
-1.04644479e-08
-1.107967644e-08
-1.176141595e-08
-1.192772046e-08
-1.322577716e-08
-7.890591642e-09
3.585687992e-07
-4.728842945e-12
6.880615629e-11
-1.891297072e-11
2.058991191e-10
-4.254205116e-11
3.412217939e-10
-7.559922091e-11
4.73546689e-10
-1.180616579e-10
6.016141737e-10
-1.699014689e-10
7.241133329e-10
-2.310870275e-10
8.396655534e-10
-3.015849318e-10
9.468081829e-10
-3.813627559e-10
1.043977985e-09
-4.703929167e-10
1.12949424e-09
-5.686579565e-10
1.201541547e-09
-6.761577099e-10
1.258152384e-09
-7.929189614e-10
1.297189605e-09
-9.19008214e-10
1.316329178e-09
-1.054548491e-09
1.313043678e-09
-1.199741224e-09
1.284587271e-09
-1.354894431e-09
1.227983234e-09
-1.52045879e-09
1.14001548e-09
-1.697073114e-09
1.017226369e-09
-1.885621225e-09
8.559236677e-10
-2.087302135e-09
6.522006107e-10
-2.303715062e-09
4.019746836e-10
-2.536962469e-09
1.010512528e-10
-2.789763863e-09
-2.547784184e-10
-3.065588307e-09
-6.69585942e-10
-3.368795752e-09
-1.147101406e-09
-3.704775325e-09
-1.690431052e-09
-4.080064023e-09
-2.301680168e-09
-4.502416244e-09
-2.981469916e-09
-4.980787318e-09
-3.728337667e-09
-5.525175763e-09
-4.538033192e-09
-6.146263776e-09
-5.402743407e-09
-6.854787686e-09
-6.310320276e-09
-7.660595857e-09
-7.243638191e-09
-8.571392353e-09
-8.180262874e-09
-9.591246081e-09
-9.092703549e-09
-1.071922261e-08
-9.951698565e-09
-1.194751582e-08
-1.069942525e-08
-1.332627782e-08
-6.557764828e-09
3.59942604e-07
-4.910582744e-12
7.371675793e-11
-1.964236277e-11
2.206309562e-10
-4.419313541e-11
3.657726597e-10
-7.855975473e-11
5.07913438e-10
-1.227387678e-10
6.457933517e-10
-1.767274051e-10
7.781021701e-10
-2.405250617e-10
9.034634442e-10
-3.141353954e-10
1.020418786e-09
-3.975692407e-10
1.127412136e-09
-4.908486019e-10
1.222773941e-09
-5.940120376e-10
1.304705354e-09
-7.07121834e-10
1.371262596e-09
-8.302735464e-10
1.420341763e-09
-9.636084302e-10
1.449664549e-09
-1.107329617e-09
1.456765396e-09
-1.261722922e-09
1.438981144e-09
-1.427183292e-09
1.393444218e-09
-1.604248264e-09
1.317081108e-09
-1.793639596e-09
1.2066184e-09
-1.996314572e-09
1.058599395e-09
-2.213528336e-09
8.694151583e-10
-2.446907961e-09
6.353551574e-10
-2.698539842e-09
3.5268401e-10
-2.971068094e-09
1.775077371e-11
-3.267796283e-09
-3.728567591e-10
-3.592798558e-09
-8.220981014e-10
-3.951019598e-09
-1.332208919e-09
-4.348347926e-09
-1.904350722e-09
-4.791640075e-09
-2.53817657e-09
-5.28866023e-09
-3.231316299e-09
-5.847896844e-09
-3.978795297e-09
-6.478208672e-09
-4.77243026e-09
-7.18826031e-09
-5.600267302e-09
-7.985724861e-09
-6.446172209e-09
-8.876270676e-09
-7.289715715e-09
-9.862415005e-09
-8.106557639e-09
-1.094256017e-08
-8.871552074e-09
-1.210951372e-08
-9.532469725e-09
-1.341323994e-08
-5.300260267e-09
3.612311892e-07
-5.092546249e-12
7.880932338e-11
-2.037260536e-11
2.359110718e-10
-4.584596801e-11
3.91246115e-10
-8.152296806e-11
5.435905652e-10
-1.274191412e-10
6.916896881e-10
-1.835562908e-10
8.342395165e-10
-2.499640356e-10
9.698714217e-10
-3.266819895e-10
1.097137003e-09
-4.137627186e-10
1.214493162e-09