/*--------------------------------*- C++ -*----------------------------------*\
| =========                 |                                                 |
| \\      /  F ield         | OpenFOAM: The Open Source CFD Toolbox           |
|  \\    /   O peration     | Version:  v1912                                 |
|   \\  /    A nd           | Website:  www.openfoam.com                      |
|    \\/     M anipulation  |                                                 |
\*---------------------------------------------------------------------------*/
FoamFile
{
    version     2.0;
    format      ascii;
    class       surfaceScalarField;
    location    "0.1";
    object      phi.gas;
}
// * * * * * * * * * * * * * * * * * * * * * * * * * * * * * * * * * * * * * //

dimensions      [0 3 -1 0 0 0 0];
oriented        oriented;


internalField   nonuniform List<scalar> 
9440
(
-2.265775657e-12
7.562056082e-09
-9.033718057e-12
2.268613988e-08
-2.016279763e-11
3.781008373e-08
-3.541788475e-11
5.293379551e-08
-5.446339506e-11
6.805717565e-08
-7.685758076e-11
8.318011926e-08
-1.020446418e-10
9.830251361e-08
-1.293445168e-10
1.134242359e-07
-1.579400079e-10
1.285451505e-07
-1.868607434e-10
1.436651061e-07
-2.149634117e-10
1.587839315e-07
-2.409073929e-10
1.739014318e-07
-2.631246367e-10
1.890173819e-07
-2.797824124e-10
2.0413152e-07
-2.887370644e-10
2.192435386e-07
-2.874760041e-10
2.343530727e-07
-2.730445792e-10
2.494596849e-07
-2.419528754e-10
2.645628456e-07
-1.900560842e-10
2.796619069e-07
-1.123990152e-10
2.94756067e-07
-3.011637894e-12
3.098443218e-07
1.453630274e-10
3.249253975e-07
3.416372543e-10
3.399976566e-07
5.96883892e-10
3.55058961e-07
9.250413462e-10
3.701064747e-07
1.34391972e-09
3.851363661e-07
1.876665908e-09
4.001433537e-07
2.55395266e-09
4.151199895e-07
3.417346504e-09
4.300554918e-07
4.52466721e-09
4.449337741e-07
5.95886673e-09
4.597299609e-07
7.84345665e-09
4.744039049e-07
1.037091075e-08
4.888873439e-07
1.385885372e-08
5.030563977e-07
1.887166792e-08
5.166668289e-07
2.651568069e-08
5.291823875e-07
3.926895945e-08
5.392479305e-07
6.371969765e-08
5.427349506e-07
1.182044263e-07
5.20066729e-07
7.004686236e-07
-2.349080639e-12
7.048848729e-09
-9.347580535e-12
2.114646982e-08
-2.086185353e-11
3.524381788e-08
-3.665809406e-11
4.934070218e-08
-5.640354543e-11
6.343692468e-08
-7.966007755e-11
7.753227596e-08
-1.058764433e-10
9.162653105e-08
-1.343782341e-10
1.057194449e-07
-1.643551744e-10
1.198107471e-07
-1.948453577e-10
1.339001357e-07
-2.247157876e-10
1.479872699e-07
-2.526384377e-10
1.620717609e-07
-2.770607138e-10
1.761531608e-07
-2.961688623e-10
1.902309486e-07
-3.078428364e-10
2.043045126e-07
-3.095997262e-10
2.183731275e-07
-2.985224029e-10
2.324359247e-07
-2.711690916e-10
2.464918538e-07
-2.234574315e-10
2.605396309e-07
-1.505144808e-10
2.74577669e-07
-4.648001775e-11
2.886039836e-07
9.575426538e-11
3.026160616e-07
2.848956786e-10
3.166106778e-07
5.317287756e-10
3.305836315e-07
8.497792329e-10
3.445293641e-07
1.256252197e-09
3.584403905e-07
1.77338432e-09
3.723064329e-07
2.430438792e-09
3.86113066e-07
3.266723123e-09
3.998395337e-07
4.336289695e-09
4.134551071e-07
5.715497856e-09
4.269127596e-07
7.515631688e-09
4.401376647e-07
9.904801021e-09
4.530051393e-07
1.314747551e-08
4.652956479e-07
1.767797376e-08
4.765964177e-07
2.423486114e-08
4.8606965e-07
3.405603396e-08
4.918673596e-07
4.87062001e-08
4.895966763e-07
5.564849866e-08
4.590835357e-07
7.449108486e-07
-2.37534994e-12
7.081766524e-09
-9.458349127e-12
2.124518075e-08
-2.111463718e-11
3.540818804e-08
-3.711375932e-11
4.957050302e-08
-5.712716986e-11
6.373182996e-08
-8.0722422e-11
7.789185631e-08
-1.073556372e-10
9.205024643e-08
-1.363617058e-10
1.062066348e-07
-1.669419689e-10
1.203606185e-07
-1.981489458e-10
1.345117477e-07
-2.288675456e-10
1.486595151e-07
-2.577919585e-10
1.628033424e-07
-2.833972467e-10
1.76942564e-07
-3.039043658e-10
1.910764065e-07
-3.172369586e-10
2.052039629e-07
-3.209676597e-10
2.193241589e-07
-3.122505591e-10
2.334357101e-07
-2.877359959e-10
2.475370656e-07
-2.434621609e-10
2.616263333e-07
-1.747155901e-10
2.757011793e-07
-7.584974651e-11
2.897586918e-07
5.995347093e-11
3.037951933e-07
2.410009737e-10
3.178059796e-07
4.775157983e-10
3.317849457e-07
7.822210602e-10
3.457240485e-07
1.171149782e-09
3.596125138e-07
1.664786057e-09
3.734356405e-07
2.289699533e-09
3.871729559e-07
3.080925561e-09
4.007952912e-07
4.085487216e-09
4.142600049e-07
5.367673577e-09
4.275029134e-07
7.016974716e-09
4.404241517e-07
9.159749409e-09
4.528624134e-07
1.19747985e-08
4.645460992e-07
1.5706607e-08
4.74997338e-07
2.063906071e-08
4.833398359e-07
2.685793945e-08
4.879250942e-07
3.310141917e-08
4.857229516e-07
2.188642803e-08
4.611620625e-07
7.916926371e-07
-2.417006943e-12
7.082372533e-09
-9.627334385e-12
2.124695867e-08
-2.149852783e-11
3.541100591e-08
-3.780455863e-11
4.95741367e-08
-5.822333238e-11
6.373595971e-08
-8.233107262e-11
7.789606143e-08
-1.09595076e-10
9.205399804e-08
-1.393643427e-10
1.062092866e-07
-1.708577996e-10
1.20361395e-07
-2.031497859e-10
1.345097299e-07
-2.351522058e-10
1.486536224e-07
-2.65592672e-10
1.627923115e-07
-2.929877856e-10
1.769249218e-07
-3.156104256e-10
1.910504379e-07
-3.314494983e-10
2.051676707e-07
-3.381602636e-10
2.192752145e-07
-3.330023763e-10
2.333713917e-07
-3.127623018e-10
2.474541816e-07
-2.736556973e-10
2.615211248e-07
-2.112028794e-10
2.755691967e-07
-1.200691788e-10
2.895946359e-07
6.141929055e-12
3.035927099e-07
1.751593405e-10
3.175573907e-07
3.96400529e-10
3.314808963e-07
6.814456046e-10
3.453530348e-07
1.04467425e-09
3.591602503e-07
1.504124979e-09
3.728842069e-07
2.082659395e-09
3.864996402e-07
2.809532274e-09
3.999710312e-07
3.72246805e-09
4.132473258e-07
4.870261638e-09
4.262533469e-07
6.315562568e-09
4.388754794e-07
8.136264208e-09
4.509373067e-07
1.042001719e-08
4.621576284e-07
1.323439266e-08
4.720787795e-07
1.651962762e-08
4.799517054e-07
1.975281973e-08
4.845900379e-07
2.094017275e-08
4.843569682e-07
4.808545497e-09
4.677797905e-07
8.190770054e-07
-2.472566587e-12
7.084965452e-09
-9.851130255e-12
2.125469888e-08
-2.200651929e-11
3.542376469e-08
-3.871846186e-11
4.959169567e-08
-5.967330195e-11
6.375800749e-08
-8.44586122e-11
7.792218856e-08
-1.125563349e-10
9.208369022e-08
-1.433339337e-10
1.062419159e-07
-1.760333469e-10
1.203962087e-07
-2.097574095e-10
1.345458371e-07
-2.434532381e-10
1.486899779e-07
-2.758919626e-10
1.628276949e-07
-3.056441939e-10
1.769579138e-07
-3.310501375e-10
1.910793904e-07
-3.501831698e-10
2.051906702e-07
-3.608052129e-10
2.192900382e-07
-3.603117986e-10
2.333754531e-07
-3.456640775e-10
2.474444624e-07
-3.13304526e-10
2.614940915e-07
-2.590510283e-10
2.755206953e-07
-1.779639358e-10
2.895197596e-07
-6.41776254e-11
3.03485632e-07
8.931366612e-11
3.17411152e-07
2.909275414e-10
3.312871349e-07
5.508392346e-10
3.451016429e-07
8.814192101e-10
3.588389392e-07
1.29777661e-09
3.72477967e-07
1.818410589e-09
3.859900952e-07
2.465928382e-09
3.993357252e-07
3.267673337e-09
4.124591021e-07
4.255809631e-09
4.252802681e-07
5.465674787e-09
4.376824751e-07
6.929383939e-09
4.494925522e-07
8.657233291e-09
4.604510781e-07
1.058899069e-08
4.701706968e-07
1.24746271e-08
4.780914543e-07
1.360618801e-08
4.834829435e-07
1.217418925e-08
4.856677786e-07
-4.711216161e-09
4.753601458e-07
8.375207442e-07
-2.541525262e-12
7.087511537e-09
-1.01284231e-11
2.126230004e-08
-2.26357015e-11
3.543629636e-08
-3.985019881e-11
4.960894654e-08
-6.146860525e-11
6.377967645e-08
-8.709239477e-11
7.794787999e-08
-1.16221428e-10
9.211290757e-08
-1.482457423e-10
1.062740536e-07
-1.824353683e-10
1.204305421e-07
-2.17927875e-10
1.3458151e-07
-2.537131935e-10
1.487259873e-07
-2.886152904e-10
1.628628731e-07
-3.212701532e-10
1.769909064e-07
-3.500992876e-10
1.911086298e-07
-3.732777296e-10
2.052143443e-07
-3.886953712e-10
2.193060514e-07
-3.939101611e-10
2.333813801e-07
-3.860911518e-10
2.474374918e-07
-3.61949448e-10
2.614709565e-07
-3.176534516e-10
2.754775902e-07
-2.487258517e-10
2.894522371e-07
-1.499178759e-10
3.033884786e-07
-1.505713422e-11
3.172782364e-07
1.631337483e-10
3.311112286e-07
3.932474257e-10
3.448742109e-07
6.854234123e-10
3.585499099e-07
1.051576566e-09
3.721155055e-07
1.50555503e-09
3.855404474e-07
2.063077574e-09
3.987832821e-07
2.741115395e-09
4.117870162e-07
3.555995215e-09
4.244723434e-07
4.518671445e-09
4.367278756e-07
5.623894277e-09
4.483965861e-07
6.826551981e-09
4.592587496e-07
7.992225944e-09
4.690159198e-07
8.800484627e-09
4.772932734e-07
8.579490084e-09
4.837099187e-07
5.873946458e-09
4.881336098e-07
-1.049418974e-08
4.825158406e-07
8.50533839e-07
-2.623393855e-12
7.090145772e-09
-1.045745715e-11
2.12701672e-08
-2.338212074e-11
3.544927678e-08
-4.119259646e-11
4.962683723e-08
-6.359770924e-11
6.380218836e-08
-9.02152123e-11
7.797463364e-08
-1.20565914e-10
9.214342726e-08
-1.540662226e-10
1.0630776e-07
-1.900189231e-10
1.20466743e-07
-2.276019771e-10
1.346193894e-07
-2.658550159e-10
1.487645916e-07
-3.03663152e-10
1.629010954e-07
-3.39737833e-10
1.770274672e-07
-3.72594064e-10
1.911420547e-07
-4.005233568e-10
2.052429365e-07
-4.215616661e-10
2.193278606e-07
-4.334514495e-10
2.333941645e-07
-4.335967312e-10
2.474386733e-07
-4.190103792e-10
2.614575683e-07
-3.862520046e-10
2.754462152e-07
-3.313563613e-10
2.893989372e-07
-2.497518688e-10
3.033087129e-07
-1.361713668e-10
3.171667736e-07
1.543831312e-11
3.309620566e-07
2.119956245e-10
3.446804582e-07
4.613220693e-10
3.583038083e-07
7.720836912e-10
3.718084489e-07
1.15352342e-09
3.851632588e-07
1.61476509e-09
3.983269064e-07
2.163271463e-09
4.112440556e-07
2.801652643e-09
4.238402327e-07
3.521314905e-09
4.360152027e-07
4.290179334e-09
4.476353119e-07
5.029705858e-09
4.585270665e-07
5.574111159e-09
4.684788163e-07
5.60491847e-09
4.772676041e-07
4.567946907e-09
4.847467858e-07
1.301638898e-09
4.910576123e-07
-1.412055046e-08
4.88829326e-07
8.601732301e-07
-2.717648212e-12
7.092873163e-09
-1.083619561e-11
2.127831555e-08
-2.424116255e-11
3.546273195e-08
-4.273728538e-11
4.964540571e-08
-6.604717172e-11
6.382559477e-08
-9.380702164e-11
7.800251685e-08
-1.255613632e-10
9.217533516e-08
-1.607563992e-10
1.063431429e-07
-1.987318528e-10
1.205049454e-07
-2.387111214e-10
1.346596403e-07
-2.79789563e-10
1.488059929e-07
-3.209206761e-10
1.629426081e-07
-3.608999713e-10
1.770678955e-07
-3.98346214e-10
1.91180027e-07
-4.316796093e-10
2.052768842e-07
-4.59096727e-10
2.193559929e-07
-4.78541819e-10
2.3341444e-07
-4.87674344e-10
2.474487678e-07
-4.838328769e-10
2.614548387e-07
-4.639960688e-10
2.754276609e-07
-4.24742239e-10
2.8936116e-07
-3.622112739e-10
3.032478792e-07
-2.720756862e-10
3.170785858e-07
-1.495347779e-10
3.308417472e-07
1.064487172e-11
3.4452283e-07
2.140003967e-10
3.58103363e-07
4.660758155e-10
3.71559683e-07
7.71822688e-10
3.848612599e-07
1.134457329e-09
3.9796849e-07
1.553346477e-09
4.108298683e-07
2.020189261e-09
4.233785498e-07
2.512260137e-09
4.355286498e-07
2.980769938e-09
4.471724407e-07
3.331660315e-09
4.581814536e-07
3.396297092e-09
4.684181944e-07
2.893490436e-09
4.77771591e-07
1.39935057e-09
4.86236807e-07
-1.998034439e-09
4.940700049e-07
-1.648301386e-08
4.942322527e-07
8.676071073e-07
-2.823710349e-12
7.095705864e-09
-1.126233361e-11
2.128678171e-08
-2.520758303e-11
3.547672357e-08
-4.447475887e-11
4.966473978e-08
-6.8801729e-11
6.385001108e-08
-9.784509719e-11
7.803167454e-08
-1.311755744e-10
9.220880816e-08
-1.682721994e-10
1.063804141e-07
-2.085152846e-10
1.205453997e-07
-2.511780214e-10
1.347025562e-07
-2.954166381e-10
1.488505328e-07
-3.402590504e-10
1.629878069e-07
-3.845919003e-10
1.771126478e-07
-4.271459071e-10
1.912230726e-07
-4.664794469e-10
2.053167919e-07
-5.009605747e-10
2.193911422e-07
-5.28747638e-10
2.334430023e-07
-5.477691977e-10
2.474686863e-07
-5.557042757e-10
2.614638086e-07
-5.499655964e-10
2.75423113e-07
-5.276887916e-10
2.893402498e-07
-4.85734662e-10
3.032074895e-07
-4.207148661e-10
3.170153521e-07
-3.290599146e-10
3.307521254e-07
-2.071607478e-10
3.44403237e-07
-5.163284357e-11
3.579504397e-07
1.402106834e-10
3.713707652e-07
3.695339795e-10
3.846351985e-07
6.345705733e-10
3.977070508e-07
9.282618761e-10
4.105400812e-07
1.234349141e-09
4.230765947e-07
1.521058934e-09
4.352461358e-07
1.731262218e-09
4.469661906e-07
1.768076571e-09
4.581478145e-07
1.476211086e-09
4.687115675e-07
6.239793892e-10
4.786222856e-07
-1.097085772e-09
4.879514941e-07
-4.423606156e-09
4.9698577e-07
-1.810014827e-08
4.988440441e-07
8.735315803e-07
-2.940945131e-12
7.098654939e-09
-1.173331977e-11
2.129559902e-08
-2.62755702e-11
3.549130781e-08
-4.639447957e-11
4.968491934e-08
-7.184448425e-11
6.387554222e-08
-1.023043082e-10
7.806223841e-08
-1.373730039e-10
9.224400683e-08
-1.765650502e-10
1.064197657e-07
-2.193044637e-10
1.205883326e-07
-2.649178531e-10
1.347484019e-07
-3.126265304e-10
1.488985183e-07
-3.615376464e-10
1.63037046e-07
-4.106344288e-10
1.771621311e-07
-4.587656457e-10
1.912716572e-07
-5.046345423e-10
2.053631903e-07
-5.467878083e-10
2.194339117e-07
-5.836052525e-10
2.334805342e-07
-6.132915803e-10
2.474991981e-07
-6.338721101e-10
2.6148534e-07
-6.431965961e-10
2.754335288e-07
-6.389552682e-10
2.893372567e-07
-6.187169408e-10
3.031886738e-07
-5.800012592e-10
3.169782513e-07
-5.204074681e-10
3.306943567e-07
-4.378344035e-10
3.443227157e-07
-3.308429407e-10
3.578457398e-07
-1.992465385e-10
3.712417066e-07
-4.505932376e-11
3.844837902e-07
1.259961811e-10
3.97538989e-07
3.021297389e-10
4.103670952e-07
4.618599494e-10
4.229200499e-07
5.686218848e-10
4.351423938e-07
5.631446966e-10
4.469741858e-07
3.536592652e-10
4.583587825e-07
-1.943616398e-10
4.692592313e-07
-1.263358591e-09
4.796879587e-07
-3.070623459e-09
4.897511962e-07
-6.237311884e-09
4.997247732e-07
-1.925163833e-08
5.028061268e-07
8.783806327e-07
-3.068663235e-12
7.101730796e-09
-1.224638174e-11
2.130479886e-08
-2.743880573e-11
3.550653745e-08
-4.848499893e-11
4.970601939e-08
-7.515709996e-11
6.390228654e-08
-1.071574243e-10
7.80943316e-08
-1.441151885e-10
9.228108096e-08
-1.855824954e-10
1.064613763e-07
-2.31029591e-10
1.206339538e-07
-2.798394191e-10
1.347974213e-07
-3.313016332e-10
1.489502309e-07
-3.846062009e-10
1.630906478e-07
-4.388367873e-10
1.772167125e-07
-4.92964226e-10
1.913261966e-07
-5.458406015e-10
2.054165483e-07
-5.961947993e-10
2.194848264e-07
-6.426307344e-10
2.335276197e-07
-6.836300312e-10
2.475409472e-07
-7.175620014e-10
2.61520134e-07
-7.427053929e-10
2.754596588e-07
-7.572880198e-10
2.893529637e-07
-7.595546832e-10
3.031922155e-07
-7.478769351e-10
3.169680119e-07
-7.209282142e-10
3.306690206e-07
-6.779589317e-10
3.442815411e-07
-6.192215558e-10
3.577889817e-07
-5.466212963e-10
3.711712631e-07
-4.647029439e-10
3.844041837e-07
-3.821318741e-10
3.974588382e-07
-3.138726594e-10
4.103012817e-07
-2.843128244e-10
4.228928229e-07
-3.315491546e-10
4.351916299e-07
-5.128366863e-10
4.471568029e-07
-9.105539584e-10
4.587566662e-07
-1.636588597e-09
4.699835761e-07
-2.830352295e-09
4.808772738e-07
-4.641400543e-09
4.91554162e-07
-7.617807159e-09
5.022619892e-07
-2.009774117e-08
5.062429418e-07
8.824387806e-07
-3.206128554e-12
7.104943109e-09
-1.279855253e-11
2.131441036e-08
-2.869052932e-11
3.552246149e-08
-5.07340807e-11
4.972810948e-08
-7.871999649e-11
6.393033508e-08
-1.12375411e-10
7.812806785e-08
-1.513611952e-10
9.232016845e-08
-1.952688154e-10
1.065054096e-07
-2.436167227e-10
1.206824551e-07
-2.958463656e-10
1.348498363e-07
-3.513180718e-10
1.490059247e-07
-4.093070168e-10
1.631489011e-07
-4.68999591e-10
1.77276718e-07
-5.294907017e-10
1.913870559e-07
-5.897826426e-10
2.05477271e-07
-6.4878672e-10
2.195443321e-07
-7.053292265e-10
2.335847434e-07
-7.581638602e-10
2.475944521e-07
-8.059943323e-10
2.615687337e-07
-8.475110508e-10
2.755020537e-07
-8.814504103e-10
2.893878997e-07
-9.066858452e-10
3.032185751e-07
-9.223659601e-10
3.169849511e-07
-9.281215459e-10
3.306761752e-07
-9.243737063e-10
3.442793328e-07
-9.127891784e-10
3.577790703e-07
-8.96944013e-10
3.711572062e-07
-8.832825694e-10
3.843923906e-07
-8.824825421e-10
3.97459926e-07
-9.113509956e-10
4.103319605e-07
-9.953601696e-10
4.229784158e-07
-1.171836289e-09
4.353692414e-07
-1.493538003e-09
4.474788717e-07
-2.031756131e-09
4.592940436e-07
-2.876974149e-09
4.708261664e-07
-4.13346113e-09
4.821286544e-07
-5.902220547e-09
4.933147354e-07
-8.686878022e-09
5.045993905e-07
-2.073593531e-08
5.092557304e-07
8.858996812e-07
-3.35256264e-12
7.108300777e-09
-1.338669872e-11
2.132446031e-08
-3.00236066e-11
3.553912496e-08
-5.312882035e-11
4.975125342e-08
-8.251255634e-11
6.395977119e-08
-1.17927742e-10
7.816355105e-08
-1.590680675e-10
9.236139485e-08
-2.055656727e-10
1.065520142e-07
-2.569886306e-10
1.207340094e-07
-3.128383775e-10
1.349058455e-07
-3.725473396e-10
1.490658258e-07
-4.354771335e-10
1.632120606e-07
-5.009177199e-10
1.773424314e-07
-5.680881942e-10
1.914545482e-07
-6.361400442e-10
2.055457004e-07
-7.041641761e-10
2.196127964e-07
-7.712036971e-10
2.336522931e-07
-8.362747309e-10
2.476601111e-07
-8.983994725e-10
2.616315321e-07
-9.566551717e-10
2.755610762e-07
-1.010248287e-09
2.894423593e-07
-1.058622439e-09
3.032679208e-07
-1.101615798e-09
3.170290242e-07
-1.139686393e-09
3.307154333e-07
-1.174234341e-09
3.443151702e-07
-1.208059757e-09
3.578142727e-07
-1.246003524e-09
3.711965875e-07
-1.295831693e-09
3.844436723e-07
-1.369432256e-09
3.975349268e-07
-1.484383625e-09
4.104481549e-07
-1.665904095e-09
4.231608709e-07
-1.949067643e-09
4.356528175e-07
-2.380906889e-09
4.479103092e-07
-3.021529888e-09
4.599330716e-07
-3.942655608e-09
4.717440316e-07
-5.221044071e-09
4.834016044e-07
-6.923725759e-09
4.950093727e-07
-9.528256564e-09
5.067508712e-07
-2.122811406e-08
5.119245662e-07
8.888993242e-07
-3.507153297e-12
7.111811892e-09
-1.40075502e-11
2.133497307e-08
-3.14305943e-11
3.555656874e-08
-5.5655772e-11
4.977550905e-08
-8.651332398e-11
6.399067028e-08
-1.237827076e-10
7.820087487e-08
-1.671912696e-10
9.240487296e-08
-2.164127277e-10
1.066013229e-07
-2.710656794e-10
1.207887704e-07
-3.307123476e-10
1.349656245e-07
-3.948578501e-10
1.491301319e-07
-4.629504076e-10
1.632803465e-07
-5.34383041e-10
1.774140949e-07
-6.084974698e-10
1.915289364e-07
-6.845912355e-10
2.056221163e-07
-7.619293905e-10
2.19690511e-07
-8.397629951e-10
2.337305636e-07
-9.173569258e-10
2.477382086e-07
-9.940308905e-10
2.617087821e-07
-1.069218467e-09
2.756369176e-07
-1.142550778e-09
2.89516427e-07
-1.213976167e-09
3.033401653e-07
-1.283927674e-09
3.170998779e-07
-1.353555326e-09
3.307860414e-07
-1.425046938e-09
3.443877092e-07
-1.502066982e-09
3.578923868e-07
-1.590349281e-09
3.712859773e-07
-1.698478627e-09
3.845528723e-07
-1.838896696e-09
3.976763047e-07
-2.029140168e-09
4.106391417e-07
-2.293259195e-09
4.234253694e-07
-2.663234527e-09
4.360226098e-07
-3.179993577e-09
4.484260632e-07
-3.893261245e-09
4.606441925e-07
-4.859054644e-09
4.72706158e-07
-6.133183704e-09
4.846701799e-07
-7.759327057e-09
4.966277535e-07
-1.020041252e-08
5.087346255e-07
-2.161498472e-08
5.143122158e-07
8.915357896e-07
-3.669060724e-12
7.11548371e-09
-1.465772704e-11
2.134597047e-08
-3.29038079e-11
3.557482942e-08
-5.830106586e-11
4.980092805e-08
-9.070019849e-11
6.402309955e-08
-1.299077015e-10
7.824012255e-08
-1.756851144e-10
9.245070257e-08
-2.277482482e-10
1.066534526e-07
-2.857666381e-10
1.208468724e-07
-3.493634892e-10
1.350293253e-07
-4.181164041e-10
1.491990126e-07
-4.915594454e-10
1.633539451e-07
-5.691869678e-10
1.774919099e-07
-6.504602694e-10
1.916104337e-07
-7.348179761e-10
2.057067391e-07
-8.216916162e-10
2.197776957e-07
-9.105287056e-10
2.338197627e-07
-1.000825955e-09
2.478289234e-07
-1.092176073e-09
2.618006095e-07
-1.184334055e-09
2.757296155e-07
-1.277306394e-09
2.896100037e-07
-1.371476834e-09
3.034350039e-07
-1.467776411e-09
3.171969055e-07
-1.567913541e-09
3.308869578e-07
-1.674680955e-09
3.444952917e-07
-1.792361108e-09
3.580108932e-07
-1.927254363e-09
3.714216709e-07
-2.088345641e-09
3.847146845e-07
-2.288117448e-09
3.978766427e-07
-2.543483654e-09
4.108948155e-07
-2.876756943e-09
4.237585524e-07
-3.316450085e-09
4.364616351e-07
-3.897540577e-09
4.490056827e-07
-4.660587176e-09
4.614046992e-07
-5.648865849e-09
4.736905283e-07
-6.902529753e-09
4.859183155e-07
-8.449407681e-09
4.981672246e-07
-1.07448001e-08
5.105694535e-07
-2.192412313e-08
5.16467887e-07
8.938814603e-07
-3.837424138e-12
7.119322634e-09
-1.533376674e-11
2.135747175e-08
-3.443538177e-11
3.559393923e-08
-6.105052504e-11
4.982755585e-08
-9.505062524e-11
6.405711789e-08
-1.362695092e-10
7.828136672e-08
-1.845031694e-10
9.249897033e-08
-2.395096687e-10
1.067085042e-07
-3.010094574e-10
1.209084306e-07
-3.686863501e-10
1.350970767e-07
-4.421895815e-10
1.492726096e-07
-5.211373831e-10
1.634330092e-07
-6.051227345e-10
1.775760379e-07
-6.937222083e-10
1.916992059e-07
-7.865090541e-10
2.057997325e-07
-8.830718367e-10
2.198745028e-07
-9.8304097e-10
2.339200177e-07
-1.086125739e-09
2.479323386e-07
-1.192165083e-09
2.619070265e-07
-1.301197577e-09
2.758390742e-07
-1.41355426e-09
2.897228348e-07
-1.529983977e-09
3.035519532e-07
-1.651821007e-09
3.173193009e-07
-1.781204855e-09
3.31016927e-07
-1.921364998e-09
3.446360457e-07
-2.076984235e-09
3.581670875e-07
-2.25465382e-09
3.715998575e-07
-2.463424281e-09
3.849238594e-07
-2.715437705e-09
3.981288733e-07
-3.026597528e-09
4.112059063e-07
-3.417174392e-09
4.241486455e-07
-3.912155129e-09
4.369555581e-07
-4.541025506e-09
4.496327279e-07
-5.336516749e-09
4.621973797e-07
-6.331782908e-09
4.74681763e-07
-7.55542586e-09
4.871365435e-07
-9.024622532e-09
4.99629403e-07
-1.119122969e-08
5.122730058e-07
-2.217480595e-08
5.184304541e-07
8.95990761e-07
-4.011367744e-12
7.123334195e-09
-1.603215086e-11
2.136949352e-08
-3.601732976e-11
3.561392596e-08
-6.388977201e-11
4.985543151e-08
-9.954176658e-11
6.409277575e-08
-1.428345681e-10
7.832466933e-08
-1.935986285e-10
9.254974973e-08
-2.516341184e-10
1.067665624e-07
-3.167119703e-10
1.209735407e-07
-3.885757767e-10
1.351689846e-07
-4.669449214e-10
1.493510374e-07
-5.515194559e-10
1.635176599e-07
-6.419874001e-10
1.776666025e-07
-7.380353076e-10
1.917953741e-07
-8.393634346e-10
2.059012076e-07
-9.45706625e-10
2.199810225e-07
-1.056863167e-09
2.340313828e-07
-1.172734218e-09
2.480484524e-07
-1.293376687e-09
2.62027947e-07
-1.419074121e-09
2.759650849e-07
-1.550430928e-09
2.898545378e-07
-1.688492726e-09
3.036903895e-07
-1.834907126e-09
3.174661092e-07
-1.992127348e-09
3.311745468e-07
-2.163669911e-09
3.448079731e-07
-2.354431332e-09
3.583581902e-07
-2.571069429e-09
3.718167532e-07
-2.822443323e-09
3.851753531e-07
-3.120086763e-09
3.984264269e-07
-3.478658953e-09
4.115640864e-07
-3.916274501e-09
4.245854507e-07
-4.454538018e-09
4.374924542e-07
-5.118042864e-09
4.502941436e-07
-5.932989818e-09
4.630093385e-07
-6.924606362e-09
4.756693099e-07
-8.11305238e-09
4.883197412e-07
-9.508410136e-09
5.010181381e-07
-1.156154752e-08
5.138611393e-07
-2.238076623e-08
5.202308325e-07
8.979053254e-07
-4.190007115e-12
7.127523048e-09
-1.674932877e-11
2.138204977e-08
-3.764160049e-11
3.56348129e-08
-6.680432873e-11
4.98845877e-08
-1.041506607e-10
6.413011517e-08
-1.495692028e-10
7.837008174e-08
-2.029246642e-10
9.260310119e-08
-2.640588895e-10
1.068276963e-07
-3.32792534e-10
1.210422796e-07
-4.089277165e-10
1.352451327e-07
-4.922520006e-10
1.494343845e-07
-5.825443411e-10
1.636079872e-07
-6.795835295e-10
1.777636914e-07
-7.831600801e-10
1.918990175e-07
-8.930927962e-10
2.060112266e-07
-1.009251141e-09
2.200972886e-07
-1.131585391e-09
2.34153848e-07
-1.260167122e-09
2.481771891e-07
-1.395242482e-09
2.621632013e-07
-1.537302215e-09
2.761073462e-07
-1.68717339e-09
2.900046296e-07
-1.846134548e-09
3.038495839e-07
-2.016063176e-09
3.176362736e-07
-2.19962144e-09
3.31358328e-07
-2.400483006e-09
3.450090233e-07
-2.623602891e-09
3.58581435e-07
-2.875528735e-09
3.720687005e-07
-3.16473989e-09
3.854644297e-07
-3.501986206e-09
3.987633146e-07
-3.900565542e-09
4.119619988e-07
-4.376451828e-09
4.250602584e-07
-4.948126466e-09
4.380625182e-07
-5.635930605e-09
4.509796667e-07
-6.460703543e-09
4.638310174e-07
-7.441528831e-09
4.766460875e-07
-8.592440731e-09
4.894656018e-07
-9.918842927e-09
5.023383052e-07
-1.18720124e-08
5.153477623e-07
-2.255199068e-08
5.218937788e-07
8.996574822e-07
-4.372455064e-12
7.131892966e-09
-1.748173939e-11
2.139515178e-08
-3.930012414e-11
3.565661888e-08
-6.977970262e-11
4.991505069e-08
-1.08854361e-10
6.416916979e-08
-1.564398444e-10
7.841764469e-08
-2.124347192e-10
9.265907224e-08
-2.767218489e-10
1.068919597e-07
-3.491705648e-10
1.211147061e-07
-4.296399167e-10
1.35325583e-07
-5.179833254e-10
1.495227139e-07
-6.140552584e-10
1.637040522e-07
-7.177205614e-10
1.778673586e-07
-8.288671581e-10
1.920101768e-07
-9.474234204e-10
2.061298081e-07
-1.073381294e-09
2.202232853e-07
-1.206826801e-09
2.342873467e-07
-1.347980388e-09
2.483184103e-07
-1.49724924e-09
2.623125512e-07
-1.655294784e-09
2.762654837e-07
-1.823119014e-09
2.901725521e-07
-2.002173764e-09
3.040287354e-07
-2.194491723e-09
3.178286757e-07
-2.402852326e-09
3.315667445e-07
-2.630976937e-09
3.452371533e-07
-2.883753812e-09
3.588341377e-07
-3.167485429e-09
3.723522395e-07
-3.490140774e-09
3.85786724e-07
-3.861582572e-09
3.991341643e-07
-4.293714497e-09
4.123932317e-07
-4.800468531e-09
4.255657152e-07
-5.397514197e-09
4.386577653e-07
-6.101561896e-09
4.51681299e-07
-6.929098151e-09
4.646554083e-07
-7.894479873e-09
4.776074855e-07
-9.00732109e-09
4.905736042e-07
-1.026998244e-08
5.035951041e-07
-1.213490159e-08
5.167449081e-07
-2.269587978e-08
5.234392541e-07
9.012726671e-07
-4.557826873e-12
7.136446839e-09
-1.822582971e-11
2.140880822e-08
-4.098485552e-11
3.567935825e-08
-7.280146233e-11
4.994684043e-08
-1.136300692e-10
6.420996492e-08
-1.634132122e-10
7.846738857e-08
-2.220827728e-10
9.271769771e-08
-2.895617829e-10
1.069593909e-07
-3.657669831e-10
1.21190861e-07
-4.506125112e-10
1.35410377e-07
-5.440150188e-10
1.496160651e-07
-6.459008355e-10
1.638058885e-07
-7.562158198e-10
1.779776272e-07
-8.749384662e-10
1.921288576e-07
-1.002097513e-09
2.062569308e-07
-1.137795123e-09
2.203589526e-07
-1.282236937e-09
2.344317643e-07
-1.435771265e-09
2.484719257e-07
-1.598939245e-09
2.624757038e-07
-1.772538439e-09
2.764390675e-07
-1.957702581e-09
2.903576953e-07
-2.156000961e-09
3.042269991e-07
-2.369557237e-09
3.180421717e-07
-2.601189248e-09
3.317982747e-07
-2.854576489e-09
3.454903754e-07
-3.134442209e-09
3.591137462e-07
-3.44674459e-09
3.726641555e-07
-3.798857014e-09
3.861382745e-07
-4.199708023e-09
3.995342209e-07
-4.659831234e-09
4.128522607e-07
-5.191262582e-09
4.260956724e-07
-5.8071859e-09
4.392717473e-07
-6.521247968e-09
4.523928573e-07
-7.346429599e-09
4.654774344e-07
-8.293470201e-09
4.785506348e-07
-9.368811049e-09
4.916443246e-07
-1.057287375e-08
5.047936587e-07
-1.235961695e-08
5.180629032e-07
-2.281801244e-08
5.24883456e-07
9.027711328e-07
-4.745242903e-12
7.141186683e-09
-1.897807018e-11
2.142302508e-08
-4.26878088e-11
3.570304092e-08
-7.585530742e-11
4.997997059e-08
-1.184552328e-10
6.425251769e-08
-1.704564696e-10
7.851933349e-08
-2.318235476e-10
9.277900008e-08
-3.025186748e-10
1.070300137e-07
-3.825045693e-10
1.21270768e-07
-4.71748435e-10
1.354995364e-07
-5.702273638e-10
1.497144551e-07
-6.779357279e-10
1.639135045e-07
-7.948952171e-10
1.780944919e-07
-9.211679793e-10
1.922550339e-07
-1.056873943e-09
2.06392539e-07
-1.20221344e-09
2.205041931e-07
-1.357496123e-09
2.34586946e-07
-1.523178168e-09
2.486375036e-07
-1.699909244e-09
2.626523248e-07
-1.888591157e-09
2.766276295e-07
-2.09045019e-09
2.905594182e-07
-2.307124658e-09
3.044435128e-07
-2.540771603e-09
3.182756209e-07
-2.794183358e-09
3.320514363e-07
-3.070925078e-09
3.457667932e-07
-3.375480239e-09
3.594178761e-07
-3.713393804e-09
3.730015078e-07
-4.091394426e-09
3.865155356e-07
-4.51746782e-09
3.999593254e-07
-5.0008394e-09
4.133343746e-07
-5.551815953e-09
4.266450331e-07
-6.181412385e-09
4.398992968e-07
-6.900710447e-09
4.531095995e-07
-7.719882676e-09
4.662934713e-07
-8.646908628e-09
4.794738806e-07
-9.68596461e-09
4.926789795e-07
-1.08362783e-08
5.059388004e-07
-1.255345799e-08
5.193105646e-07
-2.2922663e-08
5.262396015e-07
9.041691187e-07
-4.933832991e-12
7.146113646e-09
-1.973496761e-11
2.143780579e-08
-4.440108894e-11
3.572767246e-08
-7.892712074e-11
5.001444863e-08
-1.233076356e-10
6.429683718e-08
-1.775373464e-10
7.857348962e-08
-2.416126752e-10
9.284298983e-08
-3.155339115e-10
1.07103838e-07
-3.993082179e-10
1.213544347e-07
-4.929537468e-10
1.355930644e-07
-5.965051599e-10
1.498178796e-07
-7.100210088e-10
1.640268849e-07
-8.335936608e-10
1.782179211e-07
-9.673620838e-10
1.92388651e-07
-1.111528484e-09
2.065365464e-07
-1.26637983e-09
2.20658877e-07
-1.432315053e-09
2.347527044e-07
-1.60987953e-09
2.488148799e-07
-1.799808129e-09
2.628420507e-07
-2.003078063e-09
2.768306775e-07
-2.220973121e-09
2.907770658e-07
-2.455160066e-09
3.046774179e-07
-2.707778978e-09
3.185279116e-07
-2.981544611e-09
3.32324812e-07
-3.279851584e-09
3.460646284e-07
-3.606889051e-09
3.597443341e-07
-3.967744273e-09
3.733616441e-07
-4.368478105e-09
3.869153731e-07
-4.816151927e-09
4.004058799e-07
-5.318764544e-09
4.138355932e-07
-5.885067343e-09
4.272096079e-07
-6.524196048e-09
4.405363035e-07
-7.245096789e-09
4.538279206e-07
-8.055698364e-09
4.671009799e-07
-8.961878006e-09
4.803764032e-07
-9.966205995e-09
4.936791235e-07
-1.106721787e-08
5.070349585e-07
-1.272216842e-08
5.204953929e-07
-2.301316242e-08
5.27518529e-07
9.054797827e-07
-5.122737536e-12
7.151228022e-09
-2.049307588e-11
2.145315117e-08
-4.611691618e-11
3.575325411e-08
-8.200301377e-11
5.005027599e-08
-1.281654595e-10
6.434292458e-08
-1.846242282e-10
7.862985737e-08
-2.51406807e-10
9.290966579e-08
-3.285504279e-10
1.071808598e-07
-4.161051135e-10
1.214418528e-07
-5.14137822e-10
1.356909462e-07
-6.227379288e-10
1.499263149e-07
-7.420243725e-10
1.641459928e-07
-8.721551633e-10
1.783478598e-07
-1.01333955e-09
1.925296296e-07
-1.165853571e-09
2.066888404e-07
-1.330060057e-09
2.208228484e-07
-1.5064336e-09
2.349288262e-07
-1.695591775e-09
2.490037672e-07
-1.898333652e-09
2.630444991e-07
-2.115686325e-09
2.770477092e-07
-2.348960771e-09
2.910099852e-07
-2.599817075e-09
3.049278765e-07
-2.870339296e-09
3.18797982e-07
-3.163118942e-09