/*--------------------------------*- C++ -*----------------------------------*\
| =========                 |                                                 |
| \\      /  F ield         | OpenFOAM: The Open Source CFD Toolbox           |
|  \\    /   O peration     | Version:  v1912                                 |
|   \\  /    A nd           | Website:  www.openfoam.com                      |
|    \\/     M anipulation  |                                                 |
\*---------------------------------------------------------------------------*/
FoamFile
{
    version     2.0;
    format      ascii;
    class       volScalarField;
    location    "0.1";
    object      T.gas;
}
// * * * * * * * * * * * * * * * * * * * * * * * * * * * * * * * * * * * * * //

dimensions      [0 0 0 1 0 0 0];


internalField   nonuniform List<scalar> 
4800
(
111.5387143
111.5387143
111.5387143
111.5387143
111.5387143
111.5387143
111.5387142
111.5387142
111.5387142
111.5387142
111.5387142
111.5387142
111.5387142
111.5387142
111.5387142
111.5387142
111.5387142
111.5387142
111.5387142
111.5387142
111.5387142
111.5387142
111.5387142
111.5387142
111.5387142
111.5387142
111.5387142
111.5387142
111.5387142
111.5387142
111.5387141
111.5387141
111.5387141
111.5387141
111.538714
111.538714
111.538714
111.5387197
111.5380718
111.5372947
111.5387037
111.5387037
111.5387037
111.5387037
111.5387037
111.5387037
111.5387037
111.5387037
111.5387037
111.5387037
111.5387037
111.5387037
111.5387037
111.5387037
111.5387037
111.5387037
111.5387037
111.5387037
111.5387037
111.5387037
111.5387037
111.5387037
111.5387037
111.5387037
111.5387037
111.5387036
111.5387036
111.5387036
111.5387036
111.5387036
111.5387036
111.5387036
111.5387035
111.5387035
111.5387035
111.5387034
111.5387034
111.5387063
111.5350532
111.5361067
111.5386932
111.5386932
111.5386932
111.5386932
111.5386932
111.5386932
111.5386932
111.5386932
111.5386932
111.5386932
111.5386932
111.5386932
111.5386932
111.5386932
111.5386932
111.5386932
111.5386931
111.5386931
111.5386931
111.5386931
111.5386931
111.5386931
111.5386931
111.5386931
111.5386931
111.5386931
111.5386931
111.5386931
111.5386931
111.5386931
111.538693
111.538693
111.538693
111.538693
111.5386929
111.5386929
111.5386929
111.5386939
111.5340794
111.5358704
111.5386826
111.5386826
111.5386826
111.5386826
111.5386826
111.5386826
111.5386826
111.5386826
111.5386826
111.5386826
111.5386826
111.5386826
111.5386826
111.5386826
111.5386826
111.5386826
111.5386826
111.5386826
111.5386826
111.5386826
111.5386826
111.5386826
111.5386826
111.5386826
111.5386826
111.5386826
111.5386826
111.5386825
111.5386825
111.5386825
111.5386825
111.5386825
111.5386825
111.5386824
111.5386824
111.5386823
111.5386823
111.5386812
111.5341532
111.5358855
111.5386721
111.5386721
111.5386721
111.5386721
111.5386721
111.5386721
111.5386721
111.5386721
111.5386721
111.5386721
111.5386721
111.5386721
111.5386721
111.5386721
111.5386721
111.5386721
111.5386721
111.5386721
111.5386721
111.5386721
111.5386721
111.538672
111.538672
111.538672
111.538672
111.538672
111.538672
111.538672
111.538672
111.538672
111.538672
111.5386719
111.5386719
111.5386719
111.5386718
111.5386718
111.5386718
111.5386677
111.5346515
111.5358875
111.5386615
111.5386615
111.5386615
111.5386615
111.5386615
111.5386615
111.5386615
111.5386615
111.5386615
111.5386615
111.5386615
111.5386615
111.5386615
111.5386615
111.5386615
111.5386615
111.5386615
111.5386615
111.5386615
111.5386615
111.5386615
111.5386615
111.5386615
111.5386615
111.5386615
111.5386615
111.5386615
111.5386615
111.5386614
111.5386614
111.5386614
111.5386614
111.5386614
111.5386613
111.5386613
111.5386613
111.5386614
111.5386535
111.5350351
111.535848
111.538651
111.538651
111.538651
111.538651
111.538651
111.538651
111.538651
111.538651
111.538651
111.538651
111.538651
111.538651
111.538651
111.538651
111.538651
111.538651
111.538651
111.538651
111.538651
111.538651
111.538651
111.538651
111.538651
111.538651
111.5386509
111.5386509
111.5386509
111.5386509
111.5386509
111.5386509
111.5386509
111.5386509
111.5386508
111.5386508
111.5386508
111.5386507
111.5386509
111.5386388
111.5344991
111.5358248
111.5386405
111.5386405
111.5386405
111.5386405
111.5386405
111.5386405
111.5386405
111.5386405
111.5386405
111.5386405
111.5386405
111.5386405
111.5386404
111.5386404
111.5386404
111.5386404
111.5386404
111.5386404
111.5386404
111.5386404
111.5386404
111.5386404
111.5386404
111.5386404
111.5386404
111.5386404
111.5386404
111.5386404
111.5386404
111.5386404
111.5386403
111.5386403
111.5386403
111.5386403
111.5386402
111.5386402
111.5386405
111.5386234
111.5341963
111.5358108
111.5386299
111.5386299
111.5386299
111.5386299
111.5386299
111.5386299
111.5386299
111.5386299
111.5386299
111.5386299
111.5386299
111.5386299
111.5386299
111.5386299
111.5386299
111.5386299
111.5386299
111.5386299
111.5386299
111.5386299
111.5386299
111.5386299
111.5386299
111.5386299
111.5386299
111.5386299
111.5386298
111.5386298
111.5386298
111.5386298
111.5386298
111.5386298
111.5386298
111.5386297
111.5386297
111.5386297
111.5386302
111.5386088
111.5340332
111.5358016
111.5386194
111.5386194
111.5386194
111.5386194
111.5386194
111.5386194
111.5386194
111.5386194
111.5386194
111.5386194
111.5386194
111.5386194
111.5386194
111.5386194
111.5386194
111.5386194
111.5386194
111.5386194
111.5386194
111.5386193
111.5386193
111.5386193
111.5386193
111.5386193
111.5386193
111.5386193
111.5386193
111.5386193
111.5386193
111.5386193
111.5386193
111.5386192
111.5386192
111.5386192
111.5386192
111.5386192
111.5386198
111.5385951
111.53393
111.5357953
111.5386088
111.5386088
111.5386088
111.5386088
111.5386088
111.5386088
111.5386088
111.5386088
111.5386088
111.5386088
111.5386088
111.5386088
111.5386088
111.5386088
111.5386088
111.5386088
111.5386088
111.5386088
111.5386088
111.5386088
111.5386088
111.5386088
111.5386088
111.5386088
111.5386088
111.5386088
111.5386088
111.5386088
111.5386088
111.5386087
111.5386087
111.5386087
111.5386087
111.5386087
111.5386087
111.5386087
111.5386094
111.538582
111.5338596
111.5357908
111.5385983
111.5385983
111.5385983
111.5385983
111.5385983
111.5385983
111.5385983
111.5385983
111.5385983
111.5385983
111.5385983
111.5385983
111.5385983
111.5385983
111.5385983
111.5385983
111.5385983
111.5385983
111.5385983
111.5385983
111.5385983
111.5385983
111.5385983
111.5385983
111.5385982
111.5385982
111.5385982
111.5385982
111.5385982
111.5385982
111.5385982
111.5385982
111.5385982
111.5385982
111.5385981
111.5385981
111.538599
111.5385695
111.5338093
111.5357876
111.5385878
111.5385878
111.5385878
111.5385878
111.5385878
111.5385878
111.5385878
111.5385877
111.5385877
111.5385877
111.5385877
111.5385877
111.5385877
111.5385877
111.5385877
111.5385877
111.5385877
111.5385877
111.5385877
111.5385877
111.5385877
111.5385877
111.5385877
111.5385877
111.5385877
111.5385877
111.5385877
111.5385877
111.5385877
111.5385877
111.5385877
111.5385877
111.5385876
111.5385876
111.5385876
111.5385876
111.5385886
111.5385573
111.5337722
111.5357853
111.5385772
111.5385772
111.5385772
111.5385772
111.5385772
111.5385772
111.5385772
111.5385772
111.5385772
111.5385772
111.5385772
111.5385772
111.5385772
111.5385772
111.5385772
111.5385772
111.5385772
111.5385772
111.5385772
111.5385772
111.5385772
111.5385772
111.5385772
111.5385772
111.5385772
111.5385772
111.5385772
111.5385772
111.5385771
111.5385771
111.5385771
111.5385771
111.5385771
111.5385771
111.5385771
111.5385771
111.5385781
111.5385455
111.533744
111.5357835
111.5385667
111.5385667
111.5385667
111.5385667
111.5385667
111.5385667
111.5385667
111.5385667
111.5385667
111.5385667
111.5385667
111.5385667
111.5385667
111.5385667
111.5385667
111.5385667
111.5385667
111.5385667
111.5385667
111.5385667
111.5385666
111.5385666
111.5385666
111.5385666
111.5385666
111.5385666
111.5385666
111.5385666
111.5385666
111.5385666
111.5385666
111.5385666
111.5385666
111.5385666
111.5385666
111.5385666
111.5385676
111.5385339
111.5337223
111.5357822
111.5385561
111.5385561
111.5385561
111.5385561
111.5385561
111.5385561
111.5385561
111.5385561
111.5385561
111.5385561
111.5385561
111.5385561
111.5385561
111.5385561
111.5385561
111.5385561
111.5385561
111.5385561
111.5385561
111.5385561
111.5385561
111.5385561
111.5385561
111.5385561
111.5385561
111.5385561
111.5385561
111.5385561
111.5385561
111.5385561
111.5385561
111.5385561
111.5385561
111.538556
111.538556
111.538556
111.5385572
111.5385225
111.5337051
111.5357813
111.5385456
111.5385456
111.5385456
111.5385456
111.5385456
111.5385456
111.5385456
111.5385456
111.5385456
111.5385456
111.5385456
111.5385456
111.5385456
111.5385456
111.5385456
111.5385456
111.5385456
111.5385456
111.5385456
111.5385456
111.5385456
111.5385456
111.5385456
111.5385456
111.5385456
111.5385456
111.5385456
111.5385455
111.5385455
111.5385455
111.5385455
111.5385455
111.5385455
111.5385455
111.5385455
111.5385455
111.5385467
111.5385113
111.5336914
111.5357806
111.538535
111.538535
111.538535
111.538535
111.538535
111.538535
111.538535
111.538535
111.538535
111.538535
111.538535
111.538535
111.538535
111.538535
111.538535
111.538535
111.538535
111.538535
111.538535
111.538535
111.538535
111.538535
111.538535
111.538535
111.538535
111.538535
111.538535
111.538535
111.538535
111.538535
111.538535
111.538535
111.538535
111.538535
111.538535
111.538535
111.5385362
111.5385001
111.5336802
111.5357801
111.5385245
111.5385245
111.5385245
111.5385245
111.5385245
111.5385245
111.5385245
111.5385245
111.5385245
111.5385245
111.5385245
111.5385245
111.5385245
111.5385245
111.5385245
111.5385245
111.5385245
111.5385245
111.5385245
111.5385245
111.5385245
111.5385245
111.5385245
111.5385245
111.5385245
111.5385245
111.5385245
111.5385245
111.5385245
111.5385245
111.5385245
111.5385245
111.5385245
111.5385245
111.5385245
111.5385245
111.5385257
111.5384891
111.533671
111.5357798
111.538514
111.538514
111.538514
111.538514
111.538514
111.538514
111.538514
111.538514
111.538514
111.538514
111.538514
111.538514
111.538514
111.538514
111.538514
111.538514
111.538514
111.538514
111.538514
111.538514
111.538514
111.538514
111.538514
111.538514
111.538514
111.5385139
111.5385139
111.5385139
111.5385139
111.5385139
111.5385139
111.5385139
111.5385139
111.5385139
111.5385139
111.5385139
111.5385152
111.5384781
111.5336634
111.5357795
111.5385034
111.5385034
111.5385034
111.5385034
111.5385034
111.5385034
111.5385034
111.5385034
111.5385034
111.5385034
111.5385034
111.5385034
111.5385034
111.5385034
111.5385034
111.5385034
111.5385034
111.5385034
111.5385034
111.5385034
111.5385034
111.5385034
111.5385034
111.5385034
111.5385034
111.5385034
111.5385034
111.5385034
111.5385034
111.5385034
111.5385034
111.5385034
111.5385034
111.5385034
111.5385034
111.5385034
111.5385047
111.5384672
111.533657
111.5357794
111.5384929
111.5384929
111.5384929
111.5384929
111.5384929
111.5384929
111.5384929
111.5384929
111.5384929
111.5384929
111.5384929
111.5384929
111.5384929
111.5384929
111.5384929
111.5384929
111.5384929
111.5384929
111.5384929
111.5384929
111.5384929
111.5384929
111.5384929
111.5384929
111.5384929
111.5384929
111.5384929
111.5384929
111.5384929
111.5384929
111.5384929
111.5384929
111.5384929
111.5384929
111.5384929
111.5384929
111.5384942
111.5384563
111.5336517
111.5357793
111.5384823
111.5384823
111.5384823
111.5384823
111.5384823
111.5384823
111.5384823
111.5384823
111.5384823
111.5384823
111.5384823
111.5384823
111.5384823
111.5384823
111.5384823
111.5384823
111.5384823
111.5384823
111.5384823
111.5384823
111.5384823
111.5384823
111.5384823
111.5384823
111.5384823
111.5384823
111.5384823
111.5384823
111.5384823
111.5384823
111.5384823
111.5384823
111.5384823
111.5384823
111.5384823
111.5384824
111.5384837
111.5384455
111.5336471
111.5357793
111.5384718
111.5384718
111.5384718
111.5384718
111.5384718
111.5384718
111.5384718
111.5384718
111.5384718
111.5384718
111.5384718
111.5384718
111.5384718
111.5384718
111.5384718
111.5384718
111.5384718
111.5384718
111.5384718
111.5384718
111.5384718
111.5384718
111.5384718
111.5384718
111.5384718
111.5384718
111.5384718
111.5384718
111.5384718
111.5384718
111.5384718
111.5384718
111.5384718
111.5384718
111.5384718
111.5384718
111.5384731
111.5384347
111.5336431
111.5357794
111.5384613
111.5384613
111.5384613
111.5384613
111.5384613
111.5384613
111.5384613
111.5384613
111.5384613
111.5384613
111.5384613
111.5384613
111.5384613
111.5384613
111.5384613
111.5384613
111.5384613
111.5384613
111.5384613
111.5384613
111.5384613
111.5384613
111.5384613
111.5384613
111.5384613
111.5384613
111.5384613
111.5384613
111.5384613
111.5384613
111.5384613
111.5384613
111.5384613
111.5384613
111.5384613
111.5384613
111.5384626
111.538424
111.5336397
111.5357795
111.5384507
111.5384507
111.5384507
111.5384507
111.5384507
111.5384507
111.5384507
111.5384507
111.5384507
111.5384507
111.5384507
111.5384507
111.5384507
111.5384507
111.5384507
111.5384507
111.5384507
111.5384507
111.5384507
111.5384507
111.5384507
111.5384507
111.5384507
111.5384507
111.5384507
111.5384507
111.5384507
111.5384507
111.5384507
111.5384507
111.5384507
111.5384507
111.5384507
111.5384508
111.5384508
111.5384508
111.5384521
111.5384132
111.5336366
111.5357797
111.5384402
111.5384402
111.5384402
111.5384402
111.5384402
111.5384402
111.5384402
111.5384402
111.5384402
111.5384402
111.5384402
111.5384402
111.5384402
111.5384402
111.5384402
111.5384402
111.5384402
111.5384402
111.5384402
111.5384402
111.5384402
111.5384402
111.5384402
111.5384402
111.5384402
111.5384402
111.5384402
111.5384402
111.5384402
111.5384402
111.5384402
111.5384402
111.5384402
111.5384402
111.5384402
111.5384403
111.5384416
111.5384025
111.5336339
111.5357798
111.5384296
111.5384296
111.5384296
111.5384296
111.5384296
111.5384296
111.5384296
111.5384296
111.5384296
111.5384296
111.5384296
111.5384296
111.5384296
111.5384296
111.5384296
111.5384296
111.5384296
111.5384297
111.5384297
111.5384297
111.5384297
111.5384297
111.5384297
111.5384297
111.5384297
111.5384297
111.5384297
111.5384297
111.5384297
111.5384297
111.5384297
111.5384297
111.5384297
111.5384297
111.5384297
111.5384297
111.5384311
111.5383918
111.5336313
111.53578
111.5384191
111.5384191
111.5384191
111.5384191
111.5384191
111.5384191
111.5384191
111.5384191
111.5384191
111.5384191
111.5384191
111.5384191
111.5384191
111.5384191
111.5384191
111.5384191
111.5384191
111.5384191
111.5384191
111.5384191
111.5384191
111.5384191
111.5384191
111.5384191
111.5384191
111.5384191
111.5384191
111.5384191
111.5384191
111.5384191
111.5384191
111.5384191
111.5384192
111.5384192
111.5384192
111.5384192
111.5384205
111.5383812
111.533629
111.5357802
111.5384086
111.5384086
111.5384086
111.5384086
111.5384086
111.5384086
111.5384086
111.5384086
111.5384086
111.5384086
111.5384086
111.5384086
111.5384086
111.5384086
111.5384086
111.5384086
111.5384086
111.5384086
111.5384086
111.5384086
111.5384086
111.5384086
111.5384086
111.5384086
111.5384086
111.5384086
111.5384086
111.5384086
111.5384086
111.5384086
111.5384086
111.5384086
111.5384086
111.5384086
111.5384086
111.5384087
111.53841
111.5383705
111.5336267
111.5357805
111.538398
111.538398
111.538398
111.538398
111.538398
111.538398
111.538398
111.538398
111.538398
111.538398
111.538398
111.538398
111.538398
111.538398
111.538398
111.538398
111.538398
111.538398
111.538398
111.538398
111.538398
111.538398
111.538398
111.5383981
111.5383981
111.5383981
111.5383981
111.5383981
111.5383981
111.5383981
111.5383981
111.5383981
111.5383981
111.5383981
111.5383981
111.5383981
111.5383995
111.5383598
111.5336245
111.5357807
111.5383875
111.5383875
111.5383875
111.5383875
111.5383875
111.5383875
111.5383875
111.5383875
111.5383875
111.5383875
111.5383875
111.5383875
111.5383875
111.5383875
111.5383875
111.5383875
111.5383875
111.5383875
111.5383875
111.5383875
111.5383875
111.5383875
111.5383875
111.5383875
111.5383875
111.5383875
111.5383875
111.5383875
111.5383875
111.5383875
111.5383875
111.5383876
111.5383876
111.5383876
111.5383876
111.5383876
111.538389
111.5383492
111.5336224
111.5357809
111.5383769
111.5383769
111.5383769
111.5383769
111.5383769
111.5383769
111.5383769
111.5383769
111.5383769
111.5383769
111.5383769
111.5383769
111.5383769
111.5383769
111.5383769
111.5383769
111.538377
111.538377
111.538377
111.538377
111.538377
111.538377
111.538377
111.538377
111.538377
111.538377
111.538377
111.538377
111.538377
111.538377
111.538377
111.538377
111.538377
111.538377
111.538377
111.5383771
111.5383784
111.5383385
111.5336202
111.5357812
111.5383664
111.5383664
111.5383664
111.5383664
111.5383664
111.5383664
111.5383664
111.5383664
111.5383664
111.5383664
111.5383664
111.5383664
111.5383664
111.5383664
111.5383664
111.5383664
111.5383664
111.5383664
111.5383664
111.5383664
111.5383664
111.5383664
111.5383664
111.5383664
111.5383664
111.5383664
111.5383665
111.5383665
111.5383665
111.5383665
111.5383665
111.5383665
111.5383665
111.5383665
111.5383665
111.5383665
111.5383679
111.5383279
111.533618
111.5357814
111.5383558
111.5383558
111.5383558
111.5383558
111.5383558
111.5383558
111.5383558
111.5383559
111.5383559
111.5383559
111.5383559
111.5383559
111.5383559
111.5383559
111.5383559
111.5383559
111.5383559
111.5383559
111.5383559
111.5383559
111.5383559
111.5383559
111.5383559
111.5383559
111.5383559
111.5383559
111.5383559
111.5383559
111.5383559
111.5383559
111.5383559
111.5383559
111.538356
111.538356
111.538356
111.538356
111.5383574
111.5383172
111.5336156
111.5357817
111.5383453
111.5383453
111.5383453
111.5383453
111.5383453
111.5383453
111.5383453
111.5383453
111.5383453
111.5383453
111.5383453
111.5383453
111.5383453
111.5383453
111.5383453
111.5383453
111.5383453
111.5383453
111.5383453
111.5383453
111.5383453
111.5383454
111.5383454
111.5383454
111.5383454
111.5383454
111.5383454
111.5383454
111.5383454
111.5383454
111.5383454
111.5383454
111.5383454
111.5383454
111.5383454
111.5383455
111.5383469
111.5383066
111.533613
111.5357819
111.5383348
111.5383348
111.5383348
111.5383348
111.5383348
111.5383348
111.5383348
111.5383348
111.5383348
111.5383348
111.5383348
111.5383348
111.5383348
111.5383348
111.5383348
111.5383348
111.5383348
111.5383348
111.5383348
111.5383348
111.5383348
111.5383348
111.5383348
111.5383348
111.5383348
111.5383348
111.5383348
111.5383349
111.5383349
111.5383349
111.5383349
111.5383349
111.5383349
111.5383349
111.5383349
111.5383349
111.5383363
111.5382959
111.5336102
111.5357822
111.5383242
111.5383242
111.5383242
111.5383242
111.5383242
111.5383242
111.5383242
111.5383242
111.5383242
111.5383242
111.5383242
111.5383242
111.5383242
111.5383242
111.5383242
111.5383242
111.5383243
111.5383243
111.5383243
111.5383243
111.5383243
111.5383243
111.5383243
111.5383243
111.5383243
111.5383243
111.5383243
111.5383243
111.5383243
111.5383243
111.5383243
111.5383243
111.5383244
111.5383244
111.5383244
111.5383244
111.5383258
111.5382852
111.5336069
111.5357824
111.5383137
111.5383137
111.5383137
111.5383137
111.5383137
111.5383137
111.5383137
111.5383137
111.5383137
111.5383137
111.5383137
111.5383137
111.5383137
111.5383137
111.5383137
111.5383137
111.5383137
111.5383137
111.5383137
111.5383137
111.5383137
111.5383137
111.5383137
111.5383137
111.5383138
111.5383138
111.5383138
111.5383138
111.5383138
111.5383138
111.5383138
111.5383138
111.5383138
111.5383138
111.5383138
111.5383139
111.5383153
111.5382745
111.5336032
111.5357826
111.5383031
111.5383031
111.5383031
111.5383031
111.5383031
111.5383031
111.5383031
111.5383031
111.5383031
111.5383031
111.5383031
111.5383031
111.5383032
111.5383032
111.5383032
111.5383032
111.5383032
111.5383032
111.5383032
111.5383032
111.5383032
111.5383032
111.5383032
111.5383032
111.5383032
111.5383032
111.5383032
111.5383032
111.5383033
111.5383033
111.5383033
111.5383033
111.5383033
111.5383033
111.5383033
111.5383033
111.5383048
111.5382638
111.5335986
111.5357827
111.5382926
111.5382926
111.5382926
111.5382926
111.5382926
111.5382926
111.5382926
111.5382926
111.5382926
111.5382926
111.5382926
111.5382926
111.5382926
111.5382926
111.5382926
111.5382926
111.5382926
111.5382926
111.5382926
111.5382926
111.5382927
111.5382927
111.5382927
111.5382927
111.5382927
111.5382927
111.5382927
111.5382927
111.5382927
111.5382927
111.5382927
111.5382927
111.5382928
111.5382928
111.5382928
111.5382928
111.5382943
111.538253
111.5335931
111.5357828
111.538282
111.538282
111.538282
111.538282
111.538282
111.538282
111.5382821
111.5382821
111.5382821
111.5382821
111.5382821
111.5382821
111.5382821
111.5382821
111.5382821
111.5382821
111.5382821
111.5382821
111.5382821
111.5382821
111.5382821
111.5382821
111.5382821
111.5382821
111.5382821
111.5382821
111.5382822
111.5382822
111.5382822
111.5382822
111.5382822
111.5382822
111.5382822
111.5382822
111.5382822
111.5382823
111.5382837
111.5382422
111.5335861
111.5357829
111.5382715
111.5382715
111.5382715
111.5382715
111.5382715
111.5382715
111.5382715
111.5382715
111.5382715
111.5382715
111.5382715
111.5382715
111.5382715
111.5382715
111.5382715
111.5382715
111.5382715
111.5382715
111.5382716
111.5382716
111.5382716
111.5382716
111.5382716
111.5382716
111.5382716
111.5382716
111.5382716
111.5382716
111.5382716
111.5382716
111.5382717
111.5382717
111.5382717
111.5382717
111.5382717
111.5382717
111.5382732
111.5382314
111.5335769
111.5357828
111.538261
111.538261
111.538261
111.538261
111.538261
111.538261
111.538261
111.538261
111.538261
111.538261
111.538261
111.538261
111.538261
111.538261
111.538261
111.538261
111.538261
111.538261
111.538261
111.538261
111.538261
111.538261
111.538261
111.5382611
111.5382611
111.5382611
111.5382611
111.5382611
111.5382611
111.5382611
111.5382611
111.5382611
111.5382611
111.5382612
111.5382612
111.5382612
111.5382627
111.5382204
111.5335642
111.5357827
111.5382504
111.5382504
111.5382504
111.5382504
111.5382504
111.5382504
111.5382504
111.5382504
111.5382504
111.5382504
111.5382504
111.5382504
111.5382504
111.5382504
111.5382504
111.5382505
111.5382505
111.5382505
111.5382505
111.5382505
111.5382505
111.5382505
111.5382505
111.5382505
111.5382505
111.5382505
111.5382505
111.5382506
111.5382506
111.5382506
111.5382506
111.5382506
111.5382506
111.5382506
111.5382506
111.5382507
111.5382522
111.5382094
111.5335449
111.5357824
111.5382399
111.5382399
111.5382399
111.5382399
111.5382399
111.5382399
111.5382399
111.5382399
111.5382399
111.5382399
111.5382399
111.5382399
111.5382399
111.5382399
111.5382399
111.5382399
111.5382399
111.5382399
111.5382399
111.5382399
111.5382399
111.53824
111.53824
111.53824
111.53824
111.53824
111.53824
111.53824
111.53824
111.53824
111.5382401
111.5382401
111.5382401
111.5382401
111.5382401
111.5382401
111.5382417
111.5381982
111.5335326
111.5357498
111.5382293
111.5382293
111.5382293
111.5382293
111.5382293
111.5382293
111.5382293
111.5382293
111.5382293
111.5382293
111.5382293
111.5382293
111.5382293
111.5382294
111.5382294
111.5382294
111.5382294
111.5382294
111.5382294
111.5382294
111.5382294
111.5382294
111.5382294
111.5382294
111.5382294
111.5382295
111.5382295
111.5382295
111.5382295
111.5382295
111.5382295
111.5382295
111.5382295
111.5382296
111.5382296
111.5382296
111.5382312
111.5381867
111.5334952
111.5358123
111.5382188
111.5382188
111.5382188
111.5382188
111.5382188
111.5382188
111.5382188
111.5382188
111.5382188
111.5382188
111.5382188
111.5382188
111.5382188
111.5382188
111.5382188
111.5382188
111.5382188
111.5382188
111.5382188
111.5382189
111.5382189
111.5382189
111.5382189
111.5382189
111.5382189
111.5382189
111.5382189
111.5382189
111.5382189
111.538219
111.538219
111.538219
111.538219
111.538219
111.538219
111.5382191
111.5382207
111.538175
111.5334946
111.5359041
111.5382082
111.5382082
111.5382082
111.5382082
111.5382082
111.5382082
111.5382082
111.5382082
111.5382082
111.5382082
111.5382083
111.5382083
111.5382083
111.5382083
111.5382083
111.5382083
111.5382083
111.5382083
111.5382083
111.5382083
111.5382083
111.5382083
111.5382083
111.5382083
111.5382084
111.5382084
111.5382084
111.5382084
111.5382084
111.5382084
111.5382084
111.5382085
111.5382085
111.5382085
111.5382085
111.5382085
111.5382102
111.5381629
111.533496
111.5359443
111.5381977
111.5381977
111.5381977
111.5381977
111.5381977
111.5381977
111.5381977
111.5381977
111.5381977
111.5381977
111.5381977
111.5381977
111.5381977
111.5381977
111.5381977
111.5381977
111.5381977
111.5381977
111.5381978
111.5381978
111.5381978
111.5381978
111.5381978
111.5381978
111.5381978
111.5381978
111.5381978
111.5381979
111.5381979
111.5381979
111.5381979
111.5381979
111.5381979
111.5381979
111.538198
111.538198
111.5381998
111.5381504
111.5334811
111.5355131
111.5381871
111.5381871
111.5381871
111.5381871
111.5381871
111.5381871
111.5381871
111.5381871
111.5381872
111.5381872
111.5381872
111.5381872
111.5381872
111.5381872
111.5381872
111.5381872
111.5381872
111.5381872
111.5381872
111.5381872
111.5381872
111.5381872
111.5381873
111.5381873
111.5381873
111.5381873
111.5381873
111.5381873
111.5381873
111.5381873
111.5381874
111.5381874
111.5381874
111.5381874
111.5381874
111.5381875
111.5381894
111.5381373
111.5334504
111.5358631
111.5381766
111.5381766
111.5381766
111.5381766
111.5381766
111.5381766
111.5381766
111.5381766
111.5381766
111.5381766
111.5381766
111.5381766
111.5381766
111.5381766
111.5381766
111.5381766
111.5381766
111.5381767
111.5381767
111.5381767
111.5381767
111.5381767
111.5381767
111.5381767
111.5381767
111.5381767
111.5381768
111.5381768
111.5381768
111.5381768
111.5381768
111.5381768
111.5381769
111.5381769
111.5381769
111.5381769
111.538179
111.5381234
111.533447
111.5358883
111.538166
111.538166
111.538166
111.538166
111.538166
111.538166
111.5381661
111.5381661
111.5381661
111.5381661
111.5381661
111.5381661
111.5381661
111.5381661
111.5381661
111.5381661
111.5381661
111.5381661
111.5381661
111.5381661
111.5381661
111.5381661
111.5381662
111.5381662
111.5381662
111.5381662
111.5381662
111.5381662
111.5381663
111.5381663
111.5381663
111.5381663
111.5381663
111.5381663
111.5381664
111.5381664
111.5381686
111.5381085
111.5334367
111.5357658
111.5381555
111.5381555
111.5381555
111.5381555
111.5381555
111.5381555
111.5381555
111.5381555
111.5381555
111.5381555
111.5381555
111.5381555
111.5381555
111.5381555
111.5381555
111.5381555
111.5381556
111.5381556
111.5381556
111.5381556
111.5381556
111.5381556
111.5381556
111.5381556
111.5381556
111.5381557
111.5381557
111.5381557
111.5381557
111.5381557
111.5381557
111.5381558
111.5381558
111.5381558
111.5381558
111.5381559
111.5381584
111.538092
111.5333581
111.5357157
111.5381449
111.5381449
111.5381449
111.538145
111.538145
111.538145
111.538145
111.538145
111.538145
111.538145
111.538145
111.538145
111.538145
111.538145
111.538145
111.538145
111.538145
111.538145
111.538145
111.538145
111.538145
111.5381451
111.5381451
111.5381451
111.5381451
111.5381451
111.5381451
111.5381451
111.5381452
111.5381452
111.5381452
111.5381452
111.5381453
111.5381453
111.5381453
111.5381454
111.5381482
111.5380722
111.533241
111.535704
111.5381344
111.5381344
111.5381344
111.5381344
111.5381344
111.5381344
111.5381344
111.5381344
111.5381344
111.5381344
111.5381344
111.5381344
111.5381344
111.5381344
111.5381344
111.5381345
111.5381345
111.5381345
111.5381345
111.5381345
111.5381345
111.5381345
111.5381345
111.5381345
111.5381346
111.5381346
111.5381346
111.5381346
111.5381346
111.5381346
111.5381347
111.5381347
111.5381347
111.5381347
111.5381348
111.5381349
111.5381382
111.5380458
111.533064
111.535699
111.5381239
111.5381239
111.5381239
111.5381239
111.5381239
111.5381239
111.5381239
111.5381239
111.5381239
111.5381239
111.5381239
111.5381239
111.5381239
111.5381239
111.5381239
111.5381239
111.5381239
111.5381239
111.5381239
111.5381239
111.538124
111.538124
111.538124
111.538124
111.538124
111.538124
111.538124
111.5381241
111.5381241
111.5381241
111.5381241
111.5381242
111.5381242
111.5381242
111.5381242
111.5381244
111.5381286
111.5380039
111.5328277
111.5356756
111.5381133
111.5381133
111.5381133
111.5381133
111.5381133
111.5381133
111.5381133
111.5381133
111.5381133
111.5381133
111.5381133
111.5381133
111.5381133
111.5381133
111.5381133
111.5381134
111.5381134
111.5381134
111.5381134
111.5381134
111.5381134
111.5381134
111.5381134
111.5381134
111.5381135
111.5381135
111.5381135
111.5381135
111.5381135
111.5381136
111.5381136
111.5381136
111.5381136
111.5381137
111.5381137
111.5381139
111.5381199
111.5379179
111.5325899
111.5356294
111.5382612
111.5382652
111.5382658
111.5382665
111.5382681
111.5382702
111.5382726
111.5382749
111.5382772
111.5382794
111.5382814
111.5382832
111.5382849
111.5382864
111.5382877
111.5382901
111.5382903
111.5382915
111.5382924
111.5382931
111.5382957
111.538295
111.5382961
111.5382967
111.5382973
111.5383
111.5382984
111.5382993
111.5382999
111.5383026
111.5383
111.5383011
111.5383019
111.5383046
111.5383017
111.5383038
111.5383174
111.5373956
111.5318503
111.5352026
111.540413
111.5404374
111.5404129
111.5403981
111.5403945
111.5403999
111.5404099
111.5404212
111.5404322
111.5404421
111.540451
111.5404585
111.5404646
111.5404683
111.5404691
111.5404741
111.5404847
111.5404877
111.5404858
111.5404833
111.5404892
111.5404962
111.5405001
111.5404974
111.5404951
111.5405032
111.5405058
111.5405102
111.5405098
111.5405186
111.5405175
111.5405253
111.5405293
111.5405403
111.5405416
111.5405589
111.5405701
111.5405609
111.5408111
111.5408656
111.5734046
111.5724952
111.5721682
111.572072
111.572012
111.5719767
111.571953
111.5719342
111.5719178
111.5719016
111.5718838
111.5718635
111.5718393
111.5718081
111.5717712
111.5717421
111.5717155
111.5716675
111.5716101
111.571546
111.5714924
111.5714268
111.5713462
111.5712468
111.5711372
111.5710275
111.5708864
111.5707254
111.5705385
111.5703183
111.5700252
111.569692
111.5692546
111.5686531
111.5677481
111.5663784
111.5638966
111.5601684
111.557736
111.5779313
111.5750096
111.5749954
111.5749892
111.5749884
111.5749875
111.5749869
111.5749865
111.5749862
111.5749858
111.5749854
111.5749848