/*--------------------------------*- C++ -*----------------------------------*\
| =========                 |                                                 |
| \\      /  F ield         | OpenFOAM: The Open Source CFD Toolbox           |
|  \\    /   O peration     | Version:  v1912                                 |
|   \\  /    A nd           | Website:  www.openfoam.com                      |
|    \\/     M anipulation  |                                                 |
\*---------------------------------------------------------------------------*/
FoamFile
{
    version     2.0;
    format      ascii;
    class       volVectorField;
    location    "0.1";
    object      U.gas_0;
}
// * * * * * * * * * * * * * * * * * * * * * * * * * * * * * * * * * * * * * //

dimensions      [0 1 -1 0 0 0 0];


internalField   nonuniform List<vector> 
4800
(
(-5.557102776e-06 6.731415824e-20 0.01259198301)
(-9.504816124e-06 5.791538811e-20 0.01259196821)
(-1.482819074e-05 -2.635605443e-18 0.01259192064)
(-2.022971371e-05 6.284035217e-20 0.01259184748)
(-2.550903134e-05 6.80440111e-20 0.01259174815)
(-3.056688251e-05 6.803634028e-20 0.01259162174)
(-3.532512405e-05 6.876284681e-20 0.01259146692)
(-3.970983754e-05 5.743453217e-20 0.012591282)
(-4.364563858e-05 -2.636101089e-18 0.01259106487)
(-4.705285601e-05 7.326912055e-20 0.01259081298)
(-4.984554125e-05 2.782438428e-18 0.01259052325)
(-5.192964546e-05 2.775550495e-18 0.012590192)
(-5.320110114e-05 7.324482736e-20 0.0125898148)
(-5.354362928e-05 6.805511534e-20 0.01258938637)
(-5.282614736e-05 6.804995597e-20 0.01258890034)
(-5.089957741e-05 6.804779566e-20 0.012588349)
(-4.759287338e-05 6.804397221e-20 0.01258772302)
(-4.270805867e-05 6.793296046e-20 0.01258701098)
(-3.601390704e-05 6.80470919e-20 0.01258619878)
(-2.723777228e-05 6.804935771e-20 0.01258526892)
(-1.60548939e-05 6.804582462e-20 0.01258419936)
(-2.074278408e-06 6.804762614e-20 0.01258296216)
(1.518024744e-05 6.804723113e-20 0.01258152135)
(3.62959277e-05 6.804367729e-20 0.01257983004)
(6.200692879e-05 6.804444695e-20 0.01257782613)
(9.324496984e-05 6.804186736e-20 0.01257542599)
(0.0001312124656 6.804918943e-20 0.01257251471)
(0.000177490689 6.80421283e-20 0.01256893092)
(0.0002342043106 6.803082042e-20 0.01256444202)
(0.0003042799191 6.80323912e-20 0.01255870265)
(0.0003918679934 6.803060021e-20 0.01255118139)
(0.0005030637193 6.802909578e-20 0.012541025)
(0.0006472077236 6.85120869e-20 0.0125267902)
(0.0008393986873 6.201293906e-20 0.01250587146)
(0.001105779065 -2.626365612e-18 0.01247315937)
(0.001495932711 3.270845806e-20 0.01241749892)
(0.002116333596 7.526564196e-20 0.01231088136)
(0.003236078928 6.803294154e-20 0.01206865834)
(0.005584280464 6.817429839e-20 0.01129260059)
(0.003539682327 6.6541615e-20 0.01467729029)
(-5.748761991e-06 6.788483091e-20 0.02432955513)
(-9.817960274e-06 5.811658309e-20 0.02432949989)
(-1.531001767e-05 -2.697682907e-18 0.02432935731)
(-2.089021519e-05 6.318845437e-20 0.02432913795)
(-2.635268401e-05 6.859219561e-20 0.02432884033)
(-3.159714749e-05 6.860040506e-20 0.02432846161)
(-3.654538564e-05 6.938182203e-20 0.0243279978)
(-4.112376697e-05 5.745903674e-20 0.02432744382)
(-4.525739823e-05 -2.697591754e-18 0.02432679339)
(-4.886725217e-05 7.40724606e-20 0.02432603888)
(-5.186816338e-05 2.845865014e-18 0.02432517109)
(-5.416701885e-05 2.838711188e-18 0.024324179)
(-5.566087805e-05 7.43098926e-20 0.02432304943)
(-5.623483617e-05 6.867973653e-20 0.02432176656)
(-5.575947234e-05 6.865692312e-20 0.02432031139)
(-5.408774851e-05 6.86686831e-20 0.02431866099)
(-5.105117594e-05 6.865191929e-20 0.02431678752)
(-4.645501692e-05 6.865075888e-20 0.02431465696)
(-4.007219179e-05 6.86480895e-20 0.02431222738)
(-3.163542159e-05 6.864710383e-20 0.02430944668)
(-2.082700561e-05 6.864323238e-20 0.02430624949)
(-7.265382444e-06 6.864426476e-20 0.02430255283)
(9.512833371e-06 6.864272889e-20 0.02429825017)
(3.007723228e-05 6.863506565e-20 0.02429320278)
(5.513713504e-05 6.863489582e-20 0.02428722729)
(8.558854242e-05 6.86387342e-20 0.02428007724)
(0.0001225812377 6.864355301e-20 0.02427141496)
(0.0001676167714 6.862810155e-20 0.02426076774)
(0.0002226950667 6.863060312e-20 0.02424745719)
(0.0002905399433 6.862932613e-20 0.0242304813)
(0.0003749569252 6.863190511e-20 0.02420830923)
(0.0004814209196 6.86277346e-20 0.02417850663)
(0.0006180787053 6.9137582e-20 0.02413701145)
(0.0007975251045 6.13325398e-20 0.02407663686)
(0.001040044418 -2.684002714e-18 0.02398372041)
(0.001379471913 3.482705974e-20 0.02382988829)
(0.001872018119 7.506493097e-20 0.02354953024)
(0.002593719296 6.880494821e-20 0.02296978771)
(0.003180485214 6.757145378e-20 0.02128778432)
(0.001649497216 6.746331433e-20 0.03022305075)
(-5.807866621e-06 6.80358327e-20 0.02353010278)
(-9.923833451e-06 5.813220517e-20 0.02352999934)
(-1.547960279e-05 -2.695145718e-18 0.02352976219)
(-2.112689402e-05 6.319994298e-20 0.02352939765)
(-2.66595819e-05 6.856902682e-20 0.02352890326)
(-3.197781525e-05 6.864224984e-20 0.02352827424)
(-3.700410748e-05 6.937412548e-20 0.02352750398)
(-4.166574006e-05 5.747221579e-20 0.02352658407)
(-4.58889005e-05 -2.695249953e-18 0.02352550412)
(-4.959582694e-05 7.409156183e-20 0.02352425151)
(-5.270283833e-05 2.843417486e-18 0.02352281106)
(-5.511858996e-05 2.836255255e-18 0.02352116458)
(-5.674227343e-05 7.428291854e-20 0.02351929035)
(-5.746157972e-05 6.866967521e-20 0.02351716229)
(-5.715027244e-05 6.866214064e-20 0.02351474914)
(-5.566526037e-05 6.865733676e-20 0.02351201319)
(-5.284302258e-05 6.866586116e-20 0.02350890873)
(-4.849513688e-05 6.878730294e-20 0.02350537995)
(-4.240262318e-05 6.865930168e-20 0.02350135817)
(-3.430872148e-05 6.860940985e-20 0.02349675825)
(-2.390957401e-05 6.862487412e-20 0.0234914735)
(-1.084208407e-05 6.86775919e-20 0.02348536887)
(5.332127902e-06 6.866988895e-20 0.02347827135)
(2.51482324e-05 6.86636947e-20 0.0234699564)
(4.926730606e-05 6.860857799e-20 0.02346012826)
(7.851630487e-05 6.863769376e-20 0.02344839111)
(0.0001139439228 6.863524272e-20 0.02343420555)
(0.0001568997751 6.863552795e-20 0.02341682136)
(0.0002091483844 6.863455834e-20 0.02339517073)
(0.0002730358229 6.863108067e-20 0.02336769292)
(0.0003517361626 6.863511724e-20 0.02333203618)
(0.0004496169097 6.863142013e-20 0.02328452944)
(0.0005727698123 6.920853765e-20 0.02321920309)
(0.00072971629 6.066690073e-20 0.02312588039)
(0.0009320419411 -2.684763305e-18 0.02298625736)
(0.001193516214 3.913395973e-20 0.02276544204)
(0.00152117033 7.398067771e-20 0.02239309029)
(0.001872094046 6.844329626e-20 0.0217221483)
(0.001662293967 6.858127871e-20 0.020028782)
(0.0006385836447 6.792033136e-20 0.03204079313)
(-5.901706786e-06 6.803552397e-20 0.02358621333)
(-1.008658255e-05 5.815941335e-20 0.02358606604)
(-1.573742015e-05 -2.695361243e-18 0.02358573551)
(-2.148578442e-05 6.320112761e-20 0.02358522802)
(-2.712442177e-05 6.864044624e-20 0.02358453995)
(-3.25540737e-05 6.863044201e-20 0.02358366464)
(-3.769833707e-05 6.93936176e-20 0.02358259294)
(-4.248586228e-05 5.744316851e-20 0.02358131321)
(-4.684445925e-05 -2.695411073e-18 0.0235798111)
(-5.069826237e-05 7.412091288e-20 0.02357806919)
(-5.396581852e-05 2.843553949e-18 0.02357606656)
(-5.655843294e-05 2.836368916e-18 0.02357377817)
(-5.837848106e-05 7.430069082e-20 0.02357117408)
(-5.931751263e-05 6.86617072e-20 0.0235682185)
(-5.925401482e-05 6.86564444e-20 0.02356486851)
(-5.805074662e-05 6.865756729e-20 0.02356107246)
(-5.555151727e-05 6.866030561e-20 0.02355676782)
(-5.157717976e-05 6.86542707e-20 0.02355187839)
(-4.592061198e-05 6.86466607e-20 0.02354631066)
(-3.834040025e-05 6.860886348e-20 0.02353994897)
(-2.855280242e-05 6.86056575e-20 0.02353264881)
(-1.62214268e-05 6.867271804e-20 0.02352422785)
(-9.438511759e-07 6.863961108e-20 0.02351445344)
(1.776589193e-05 6.864021823e-20 0.02350302498)
(4.05003979e-05 6.863670165e-20 0.02348954868)
(6.798952356e-05 6.863653997e-20 0.02347350087)
(0.0001011412991 6.864067658e-20 0.0234541735)
(0.0001410966171 6.863976819e-20 0.0234305912)
(0.0001893018933 6.863369801e-20 0.0234013822)
(0.0002476035634 6.86360743e-20 0.02336457193)
(0.0003183639434 6.863317728e-20 0.02331724332)
(0.0004045813395 6.863536944e-20 0.02325496108)
(0.0005099432381 6.930714624e-20 0.02317076655)
(0.0006385758977 5.966288947e-20 0.02305337581)
(0.0007937605122 -2.681065063e-18 0.02288390141)
(0.0009734565324 4.420698551e-20 0.02262997133)
(0.001156590812 7.265346217e-20 0.02223613839)
(0.001263134914 6.844268225e-20 0.02161367511)
(0.0007629090641 6.889846686e-20 0.02020244443)
(0.0001268169542 6.951762553e-20 0.03354405033)
(-6.02688867e-06 6.802427697e-20 0.02359182176)
(-1.03024262e-05 5.81305258e-20 0.02359163273)
(-1.607865937e-05 -2.69533059e-18 0.02359121089)
(-2.196061148e-05 6.325144197e-20 0.02359056366)
(-2.773931399e-05 6.854018363e-20 0.02358968635)
(-3.331622953e-05 6.864408161e-20 0.02358857047)
(-3.861636129e-05 6.938516113e-20 0.02358720447)
(-4.357014515e-05 5.741391168e-20 0.02358557362)
(-4.810750332e-05 -2.695544303e-18 0.02358365983)
(-5.215503757e-05 7.415159744e-20 0.02358144113)
(-5.563419347e-05 2.843554606e-18 0.02357889117)
(-5.845971707e-05 2.836268799e-18 0.02357597846)
(-6.053810548e-05 7.428956849e-20 0.02357266542)
(-6.176588969e-05 6.865401005e-20 0.02356890716)
(-6.202764394e-05 6.8655795e-20 0.02356465)
(-6.119365297e-05 6.865665876e-20 0.02355982943)
(-5.911712211e-05 6.865807415e-20 0.02355436754)
(-5.563074793e-05 6.865217403e-20 0.02354816965)
(-5.054249754e-05 6.864720611e-20 0.02354111996)
(-4.363040392e-05 6.864534171e-20 0.02353307564)
(-3.463608895e-05 6.86439507e-20 0.02352385898)
(-2.325664651e-05 6.86410634e-20 0.02351324673)
(-9.13446029e-06 6.864062269e-20 0.02350095546)
(8.155622221e-06 6.863476174e-20 0.02348662114)
(2.912237721e-05 6.86388887e-20 0.02346977028)
(5.437812286e-05 6.86361922e-20 0.02344977849)
(8.466296382e-05 6.863658238e-20 0.02342581007)
(0.0001208729286 6.863445588e-20 0.02339672809)
(0.0001640893453 6.863523222e-20 0.02336095805)
(0.0002156012606 6.863516587e-20 0.02331627732)
(0.0002768986911 6.863552263e-20 0.02325948361)
(0.000349581145 6.863976285e-20 0.023185865)
(0.000435045966 6.939669094e-20 0.02308834541)
(0.0005336311031 5.848796281e-20 0.02295611637)
(0.0006424490003 -2.686302803e-18 0.02277253973)
(0.0007502159507 4.934007051e-20 0.0225123619)
(0.0008257890042 7.131583204e-20 0.0221397466)
(0.0007921648073 6.867961045e-20 0.02161426307)
(0.0002007830729 6.860937573e-20 0.02049652236)
(-0.0001583191198 6.825028235e-20 0.03447111945)
(-6.18225833e-06 6.811386259e-20 0.02360065157)
(-1.056994555e-05 5.812467652e-20 0.02360042242)
(-1.650133437e-05 -2.695337933e-18 0.02359991196)
(-2.254861772e-05 6.322859074e-20 0.02359912908)
(-2.850064717e-05 6.864056008e-20 0.02359806812)
(-3.425973686e-05 6.86225717e-20 0.0235967189)
(-3.975259871e-05 6.939230767e-20 0.02359506757)
(-4.491184127e-05 5.737439791e-20 0.02359309657)
(-4.966995319e-05 -2.695418355e-18 0.02359078425)
(-5.395652899e-05 7.424828337e-20 0.02358810444)
(-5.769652652e-05 2.843742615e-18 0.02358502577)
(-6.08088494e-05 2.836243643e-18 0.0235815108)
(-6.320495826e-05 7.423229e-20 0.02357751493)
(-6.478736472e-05 6.866389981e-20 0.02357298503)
(-6.544793183e-05 6.865660809e-20 0.02356785766)
(-6.506592439e-05 6.865791822e-20 0.0235620568)
(-6.3505709e-05 6.865286544e-20 0.02355549093)
(-6.061399217e-05 6.864132009e-20 0.02354804919)
(-5.621650649e-05 6.864745493e-20 0.02353959645)
(-5.011405624e-05 6.864696613e-20 0.0235299668)
(-4.207777663e-05 6.864380719e-20 0.02351895475)
(-3.184344594e-05 6.864468025e-20 0.02350630356)
(-1.910476436e-05 6.863554773e-20 0.02349168931)
(-3.505543201e-06 6.863580096e-20 0.02347469904)
(1.53690665e-05 6.863110637e-20 0.02345480024)
(3.800160292e-05 6.863393964e-20 0.02343129795)
(6.494997011e-05 6.863653377e-20 0.0234032734)
(9.68502328e-05 6.864063065e-20 0.02336949534)
(0.0001344066964 6.863246437e-20 0.02332829005)
(0.0001783527329 6.863571916e-20 0.02327734921)
(0.0002293478925 6.863180191e-20 0.02321344412)
(0.000287739596 6.864312978e-20 0.02313200242)
(0.0003530422576 6.952463387e-20 0.02302649567)
(0.0004228384708 5.710208021e-20 0.02288760869)
(0.000490541578 -2.685467343e-18 0.02270230338)
(0.0005410919553 5.401847776e-20 0.02245339422)
(0.0005435902725 7.02243558e-20 0.02212173289)
(0.000434836175 6.864787528e-20 0.02169676635)
(-0.0001697922117 6.858296807e-20 0.0208047798)
(-0.0003309207713 6.805408884e-20 0.03510722959)
(-6.366704913e-06 6.803617884e-20 0.02360953912)
(-1.088739561e-05 5.803783704e-20 0.02360927146)
(-1.700276657e-05 -2.695355414e-18 0.0236086756)
(-2.324606051e-05 6.317432073e-20 0.02360776199)
(-2.940351695e-05 6.864544313e-20 0.02360652408)
(-3.537842527e-05 6.865552516e-20 0.02360495016)
(-4.109948298e-05 6.941745124e-20 0.02360302426)
(-4.650182125e-05 5.731706283e-20 0.02360072618)
(-5.152090175e-05 -2.695434138e-18 0.02359803104)
(-5.608978374e-05 7.423378785e-20 0.02359490882)
(-6.013748102e-05 2.843736704e-18 0.0235913236)
(-6.358768236e-05 2.836347352e-18 0.02358723256)
(-6.635753889e-05 7.424504574e-20 0.02358258484)
(-6.835639545e-05 6.865214318e-20 0.02357731999)
(-6.948441406e-05 6.86569135e-20 0.02357136602)
(-6.963103318e-05 6.865771411e-20 0.02356463695)
(-6.867320223e-05 6.865440442e-20 0.02355702959)
(-6.647334114e-05 6.864223213e-20 0.0235484195)
(-6.287699475e-05 6.864352067e-20 0.02353865562)
(-5.771019246e-05 6.864438148e-20 0.02352755339)
(-5.077651256e-05 6.86481406e-20 0.02351488555)
(-4.185388487e-05 6.863601552e-20 0.02350036995)
(-3.069134648e-05 6.86384399e-20 0.02348365326)
(-1.70061716e-05 6.863581739e-20 0.02346428894)
(-4.821364919e-07 6.863487065e-20 0.023441707)
(1.922937097e-05 6.86318759e-20 0.02341517248)
(4.250222316e-05 6.863732809e-20 0.02338372768)
(6.971671574e-05 6.864050675e-20 0.02334611137)
(0.0001012182301 6.863274297e-20 0.02330064546)
(0.0001372330635 6.863594814e-20 0.02324507663)
(0.0001777036869 6.863568812e-20 0.02317635762)
(0.0002219741257 6.864320581e-20 0.02309035612)
(0.0002682013767 6.970280236e-20 0.02298149878)
(0.0003122831538 5.55224285e-20 0.02284242555)
(0.0003459914773 -2.68715124e-18 0.02266391933)
(0.0003540017868 5.788499365e-20 0.02243583827)
(0.0003100416768 6.940277942e-20 0.02215073872)
(0.0001643773368 6.863165125e-20 0.02181353638)
(-0.0004206376116 6.857913421e-20 0.02108572796)
(-0.0004387506334 6.78621656e-20 0.03556513217)
(-6.579040529e-06 6.803484399e-20 0.02361871565)
(-1.125278394e-05 5.806182692e-20 0.02361841122)
(-1.757982947e-05 -2.695414934e-18 0.02361773366)
(-2.404856756e-05 6.32035713e-20 0.02361669497)
(-3.044220329e-05 6.864594838e-20 0.02361528786)
(-3.666510849e-05 6.86445687e-20 0.02361349919)
(-4.264821049e-05 6.942483719e-20 0.0236113111)
(-4.832947111e-05 5.726770974e-20 0.02360870096)
(-5.364768348e-05 -2.695433018e-18 0.02360564103)
(-5.853978093e-05 7.433303481e-20 0.02360209784)
(-6.293930056e-05 2.843687646e-18 0.0235980314)
(-6.677524358e-05 2.836237133e-18 0.02359339421)
(-6.997105248e-05 7.424847109e-20 0.02358812993)
(-7.244359822e-05 6.865300619e-20 0.02358217182)
(-7.410213652e-05 6.865840889e-20 0.02357544067)
(-7.484719247e-05 6.865462406e-20 0.02356784216)
(-7.456935027e-05 6.865599797e-20 0.02355926362)
(-7.314795561e-05 6.844510666e-20 0.02354956975)
(-7.044974878e-05 6.863791803e-20 0.02353859718)
(-6.632753252e-05 6.864733498e-20 0.02352614738)
(-6.061900508e-05 6.864944321e-20 0.02351197756)
(-5.314596583e-05 6.863859469e-20 0.02349578848)
(-4.371435016e-05 6.863806468e-20 0.02347720859)
(-3.211587025e-05 6.863536038e-20 0.02345577303)
(-1.81325831e-05 6.863635129e-20 0.02343089523)
(-1.546675161e-06 6.863084638e-20 0.02340182914)
(1.784049163e-05 6.863502993e-20 0.02336761842)
(4.017311368e-05 6.863480814e-20 0.02332702827)
(6.547790789e-05 6.863055077e-20 0.02327845496)
(9.355308133e-05 6.863424008e-20 0.02321980854)
(0.0001237750771 6.862836972e-20 0.02314836754)
(0.0001547672267 6.864140514e-20 0.02306061673)
(0.0001838440569 6.993099567e-20 0.02295211227)
(0.0002061144664 5.373253461e-20 0.02281749516)
(0.0002131340377 -2.685618986e-18 0.02265094026)
(0.0001911593369 6.076861103e-20 0.0224476406)
(0.0001196714881 6.885448623e-20 0.02220736734)
(-3.928006956e-05 6.860745907e-20 0.02194171255)
(-0.0005938358305 6.860720663e-20 0.02132973161)
(-0.00050897849 6.825789387e-20 0.03591036159)
(-6.817952158e-06 6.80280779e-20 0.02362820791)
(-1.16638641e-05 5.807781308e-20 0.02362786864)
(-1.822897237e-05 -2.695403261e-18 0.02362711352)
(-2.495117084e-05 6.325276847e-20 0.0236259561)
(-3.161021273e-05 6.855297783e-20 0.02362438846)
(-3.811163546e-05 6.864399252e-20 0.02362239619)
(-4.438880631e-05 6.942378829e-20 0.02361995973)
(-5.038278078e-05 5.721888636e-20 0.02361705434)
(-5.603598807e-05 -2.695579183e-18 0.02361364973)
(-6.128958162e-05 7.439723094e-20 0.02360970942)
(-6.608200335e-05 2.843794505e-18 0.02360518994)
(-7.034798909e-05 2.83613161e-18 0.02360003975)
(-7.401774139e-05 7.423391152e-20 0.02359419793)
(-7.701617716e-05 6.865066678e-20 0.02358759253)
(-7.926221702e-05 6.865560176e-20 0.02358013845)
(-8.066809627e-05 6.865385277e-20 0.02357173484)
(-8.11387098e-05 6.864730991e-20 0.02356226172)
(-8.057104223e-05 6.864002106e-20 0.0235515758)
(-7.885374981e-05 6.864179413e-20 0.02353950499)
(-7.58670636e-05 6.864007609e-20 0.0235258416)
(-7.148326532e-05 6.864965654e-20 0.02351033344)
(-6.556808811e-05 6.863525356e-20 0.02349267233)
(-5.798366016e-05 6.864379383e-20 0.02347247928)
(-4.859400416e-05 6.86383834e-20 0.02344928538)
(-3.727476183e-05 6.863498733e-20 0.02342250661)
(-2.392978393e-05 6.863653553e-20 0.02339141144)
(-8.518849911e-06 6.863347903e-20 0.02335507902)
(8.896538826e-06 6.863341123e-20 0.0233123463)
(2.807816104e-05 6.863143372e-20 0.02326174271)
(4.848946091e-05 6.862380064e-20 0.02320141471)
(6.910074405e-05 6.863125941e-20 0.02312904849)
(8.808275212e-05 6.86569517e-20 0.02304181615)
(0.0001023403285 7.021477635e-20 0.02293640431)
(0.0001068439203 5.172391267e-20 0.02280925008)
(9.377578171e-05 -2.685976256e-18 0.02265722446)
(5.170355674e-05 6.255417083e-20 0.02247916591)
(-3.450822619e-05 6.86407278e-20 0.02227874881)
(-0.0001939764857 6.860347751e-20 0.02206945375)
(-0.0007172889252 6.862358e-20 0.02153823692)
(-0.00055703337 6.810711626e-20 0.03618060388)
(-7.081995968e-06 6.80892438e-20 0.02363805282)
(-1.21181524e-05 5.804893164e-20 0.02363768081)
(-1.894626232e-05 -2.695397756e-18 0.02363685265)
(-2.594836728e-05 6.323985824e-20 0.02363558349)
(-3.290035662e-05 6.851816743e-20 0.02363386482)
(-3.970899141e-05 6.864190239e-20 0.02363168116)
(-4.631024975e-05 6.943388596e-20 0.02362901147)
(-5.264849988e-05 5.715402498e-20 0.02362582918)
(-5.867005802e-05 -2.695585564e-18 0.02362210183)
(-6.432057288e-05 7.447129131e-20 0.02361779038)
(-6.954368674e-05 2.843859882e-18 0.02361284844)
(-7.428018369e-05 2.836010055e-18 0.02360722116)
(-7.846735758e-05 7.421495036e-20 0.02360084393)
(-8.203851561e-05 6.864861465e-20 0.02359364068)
(-8.492259146e-05 6.865495946e-20 0.02358552186)
(-8.704386928e-05 6.864918799e-20 0.0235763818)
(-8.832186072e-05 6.864931398e-20 0.02356609546)
(-8.867142059e-05 6.864048897e-20 0.02355451433)
(-8.800320693e-05 6.863400961e-20 0.02354146123)
(-8.622469777e-05 6.863597722e-20 0.02352672385)
(-8.32421133e-05 6.86371547e-20 0.02351004652)
(-7.896371363e-05 6.863471079e-20 0.02349111972)
(-7.330516614e-05 6.863687414e-20 0.02346956686)
(-6.619810542e-05 6.861241852e-20 0.02344492771)
(-5.760372246e-05 6.863230877e-20 0.02341663728)
(-4.753403662e-05 6.86282019e-20 0.02338399968)
(-3.608493691e-05 6.86274257e-20 0.02334615641)
(-2.348725027e-05 6.862880571e-20 0.02330204914)
(-1.018516113e-05 6.862264483e-20 0.023250379)
(3.044651342e-06 6.862773784e-20 0.0231895686)
(1.491506639e-05 6.862845534e-20 0.02311774112)
(2.337038247e-05 6.865801389e-20 0.02303274667)
(2.523025681e-05 7.056292397e-20 0.02293229495)
(1.574236674e-05 4.937699668e-20 0.02281429937)
(-1.187586389e-05 -2.684300751e-18 0.02267760218)
(-6.666148511e-05 6.335511571e-20 0.02252330483)
(-0.0001593301052 6.852179602e-20 0.02235681344)
(-0.0003129256487 6.864619853e-20 0.02219116712)
(-0.0008077818237 6.84855142e-20 0.02171678503)
(-0.0005912358604 6.563654487e-20 0.03639868747)
(-7.369606441e-06 6.822973682e-20 0.02364828447)
(-1.261295146e-05 5.816603289e-20 0.02364788197)
(-1.97274258e-05 -2.695408854e-18 0.02364698567)
(-2.703417992e-05 6.315153815e-20 0.02364561226)
(-3.430483226e-05 6.859313823e-20 0.0236437528)
(-4.144739951e-05 6.853135818e-20 0.0236413909)
(-4.840060509e-05 6.933015335e-20 0.02363850425)
(-5.51123031e-05 5.693761151e-20 0.02363506477)
(-6.153289188e-05 -2.695424383e-18 0.02363103816)
(-6.761272098e-05 7.438882736e-20 0.02362638333)
(-7.330084088e-05 2.843763767e-18 0.02362105153)
(-7.854428847e-05 2.835823266e-18 0.02361498531)
(-8.3287644e-05 7.393396382e-20 0.02360811725)
(-8.747277837e-05 6.840696405e-20 0.02360036831)
(-9.103877103e-05 6.840628151e-20 0.02359164584)
(-9.392202146e-05 6.839052332e-20 0.02358184109)
(-9.605661864e-05 6.838331794e-20 0.02357082608)
(-9.737506959e-05 6.837541134e-20 0.02355844979)
(-9.78095392e-05 6.836907955e-20 0.02354453334)
(-9.729382434e-05 6.837292763e-20 0.02352886406)
(-9.576648494e-05 6.837680906e-20 0.0235111882)
(-9.317568321e-05 6.838157541e-20 0.02349120171)
(-8.948641398e-05 6.84266316e-20 0.02346853901)
(-8.469128456e-05 6.843505031e-20 0.02344275924)
(-7.882663524e-05 6.838101033e-20 0.02341332979)
(-7.199648012e-05 6.84431425e-20 0.02337960667)
(-6.440781617e-05 6.847147287e-20 0.02334081281)
(-5.642242759e-05 6.848076361e-20 0.02329601565)
(-4.863227574e-05 6.850714981e-20 0.02324410807)
(-4.19674356e-05 6.852889533e-20 0.02318380106)
(-3.784658521e-05 6.854810112e-20 0.02311364475)
(-3.837790829e-05 6.856761423e-20 0.02303210691)
(-4.660734929e-05 7.089166307e-20 0.02293775915)
(-6.67813681e-05 4.676781733e-20 0.0228296479)
(-0.0001045256957 -2.682774998e-18 0.02270795266)
(-0.0001667270611 6.346361457e-20 0.02257502703)
(-0.0002607235683 6.780103059e-20 0.02243672449)
(-0.0004055755824 6.759265245e-20 0.02230466941)
(-0.0008757068313 6.609353787e-20 0.02187093496)
(-0.0006163585606 6.63623399e-20 0.03657912553)
(-7.679109416e-06 6.811193231e-20 0.02365893472)
(-1.314537718e-05 5.800964737e-20 0.02365850413)
(-2.056789321e-05 -2.695431543e-18 0.02365754487)
(-2.820221855e-05 6.327736385e-20 0.02365607519)
(-3.581530412e-05 6.851139155e-20 0.02365408582)
(-4.331642775e-05 6.864822844e-20 0.0236515596)
(-5.064715593e-05 6.946310776e-20 0.02364847322)
(-5.775895934e-05 5.700817207e-20 0.02364479736)
(-6.460645695e-05 -2.695593859e-18 0.02364049628)
(-7.114483373e-05 7.464803337e-20 0.02363552725)
(-7.732866999e-05 2.844005198e-18 0.02362983976)
(-8.311135476e-05 2.8360002e-18 0.02362337447)
(-8.844482035e-05 7.41670169e-20 0.02361606203)
(-9.327951361e-05 6.864684402e-20 0.02360782149)
(-9.756459288e-05 6.864840844e-20 0.02359855842)
(-0.0001012483904 6.864328745e-20 0.02358816262)
(-0.0001042792144 6.863990929e-20 0.02357650521)
(-0.0001066066078 6.863450916e-20 0.02356343514)
(-0.0001081832413 6.863408619e-20 0.02354877494)
(-0.0001089676769 6.863499653e-20 0.02353231542)
(-0.0001089284521 6.863143496e-20 0.02351380948)
(-0.0001080500529 6.863538978e-20 0.0234929644)
(-0.0001063414524 6.863059998e-20 0.02346943267)
(-0.0001038482927 6.863689796e-20 0.0234428014)
(-0.0001006702895 6.862316036e-20 0.02341258033)
(-9.698605718e-05 6.862383528e-20 0.02337818872)
(-9.308819384e-05 6.863109351e-20 0.02333894277)
(-8.943242405e-05 6.862632093e-20 0.02329404601)
(-8.670552768e-05 6.86215265e-20 0.0232425879)
(-8.59170649e-05 6.864207733e-20 0.02318355946)
(-8.851844805e-05 6.866462535e-20 0.02311590186)
(-9.654772496e-05 6.870150556e-20 0.02303861327)
(-0.0001127852567 7.141838837e-20 0.02295095119)
(-0.0001408781224 4.462778819e-20 0.02285278055)
(-0.00018534105 -2.680900142e-18 0.02274511819)
(-0.0002512725024 6.425609511e-20 0.02263089021)
(-0.0003435402243 6.86527308e-20 0.02251570786)
(-0.0004786930801 6.852537338e-20 0.02240951316)
(-0.0009277745711 6.869312034e-20 0.02200538877)
(-0.0006353031992 7.060269505e-20 0.03673157122)
(-8.008737859e-06 6.802598603e-20 0.02367003303)
(-1.371238391e-05 5.798945721e-20 0.02366957685)
(-2.14628401e-05 -2.695447455e-18 0.02366856008)
(-2.94457425e-05 6.32876425e-20 0.02366700249)
(-3.742298822e-05 6.849866545e-20 0.0236648946)
(-4.530509829e-05 6.865030587e-20 0.02366221865)
(-5.303654671e-05 6.947798768e-20 0.02365895055)
(-6.057250586e-05 5.693255978e-20 0.02365506002)
(-6.787190066e-05 -2.695602297e-18 0.02365051024)
(-7.489481841e-05 7.47571176e-20 0.0236452573)
(-8.160140766e-05 2.844081633e-18 0.02363924947)
(-8.79514116e-05 2.835782899e-18 0.02363242621)
(-9.390406058e-05 7.415634783e-20 0.02362471706)
(-9.941824259e-05 6.86547204e-20 0.02361604017)
(-0.0001044529478 6.865292108e-20 0.02360630059)
(-0.0001089680354 6.864521556e-20 0.02359538816)
(-0.0001129254008 6.864410341e-20 0.02358317492)
(-0.0001162906669 6.86456408e-20 0.02356951208)
(-0.0001190355916 6.86410672e-20 0.02355422628)
(-0.0001211414583 6.863935909e-20 0.02353711518)
(-0.0001226038394 6.864681964e-20 0.02351794229)
(-0.0001234393016 6.863978697e-20 0.02349643094)
(-0.0001236947319 6.863926815e-20 0.02347225726)
(-0.0001234601622 6.86612783e-20 0.02344504264)
(-0.0001228864019 6.863104433e-20 0.023414346)
(-0.0001222092993 6.863968488e-20 0.02337965662)
(-0.0001217827426 6.864424935e-20 0.02334038934)
(-0.0001221228593 6.864975218e-20 0.02329588544)
(-0.0001239659898 6.865743247e-20 0.02324542436)
(-0.000128342275 6.867041162e-20 0.02318825483)
(-0.0001366638841 6.868382006e-20 0.023123659)
(-0.0001508205963 6.872651689e-20 0.02305106914)
(-0.0001732629416 7.173437816e-20 0.02297026201)
(-0.000207031537 4.273066585e-20 0.02288165898)
(-0.0002556574044 -2.679699206e-18 0.0227867477)
(-0.0003228224228 6.477238865e-20 0.02268860044)
(-0.0004116425777 6.860365027e-20 0.02259226383)
(-0.0005371397446 6.869167931e-20 0.02250606772)
(-0.0009684372694 6.863209501e-20 0.02212391696)
(-0.0006499106498 6.59338668e-20 0.03686267602)
(-8.356645779e-06 6.801456701e-20 0.0236816063)
(-1.431079217e-05 5.810966843e-20 0.02368112713)
(-2.240723391e-05 -2.695425521e-18 0.0236800585)
(-3.075772437e-05 6.326651826e-20 0.02367842169)
(-3.91187369e-05 6.861194767e-20 0.02367620709)
(-4.740199745e-05 6.879006852e-20 0.02367339652)
(-5.555491826e-05 6.966143589e-20 0.02366996531)
(-6.353641785e-05 5.702633179e-20 0.0236658825)
(-7.130975819e-05 -2.695413553e-18 0.02366111053)
(-7.883993314e-05 7.508363221e-20 0.02365560474)
(-8.609262514e-05 2.844440768e-18 0.0236493127)
(-9.30338418e-05 2.836086342e-18 0.02364217331)
(-9.962994958e-05 7.436893503e-20 0.02363411576)
(-0.0001058480152 6.895360396e-20 0.02362505825)
(-0.0001116564591 6.895792208e-20 0.02361490641)
(-0.0001170260702 6.89699428e-20 0.02360355147)
(-0.0001219314656 6.89728869e-20 0.02359086805)
(-0.0001263531188 6.865395261e-20 0.02357671154)
(-0.000130280145 6.899647397e-20 0.02356091506)
(-0.0001337141434 6.89983031e-20 0.02354328583)
(-0.0001366743832 6.901410727e-20 0.02352360116)
(-0.0001392048842 6.901357829e-20 0.02350160404)
(-0.00014138404 6.898013507e-20 0.02347699829)
(-0.0001433374334 6.898275365e-20 0.02344944376)
(-0.0001452548917 6.906679438e-20 0.02341855244)
(-0.0001474131119 6.904026065e-20 0.02338388641)
(-0.0001502053138 6.905444941e-20 0.02334495937)
(-0.0001541792152 6.908421747e-20 0.02330124531)
(-0.0001600841332 6.910579086e-20 0.02325219924)
(-0.0001689267337 6.913439142e-20 0.02319729739)
(-0.0001820317193 6.916459034e-20 0.02313610736)
(-0.0002010976076 6.922018726e-20 0.02306840215)
(-0.0002282271519 7.265944706e-20 0.02299433308)
(-0.0002658970003 4.173152341e-20 0.0229146733)
(-0.0003168105674 -2.679506266e-18 0.02283112784)
(-0.0003835641442 6.619196466e-20 0.02274666753)
(-0.0004680615836 6.981178078e-20 0.02266566407)
(-0.0005844351954 7.035257366e-20 0.02259503863)
(-0.001000724244 7.119191581e-20 0.02222948609)
(-0.0006613907812 6.981332297e-20 0.03697716141)
(-8.720925311e-06 6.802444857e-20 0.0236936788)
(-1.493731632e-05 5.795358587e-20 0.02369317932)
(-2.339587553e-05 -2.695467651e-18 0.02369206465)
(-3.213091159e-05 6.329662888e-20 0.02369035755)
(-4.089312144e-05 6.848853544e-20 0.02368804838)
(-4.959538023e-05 6.865114782e-20 0.02368511867)
(-5.818804024e-05 6.950837549e-20 0.02368154339)
(-6.663376977e-05 5.67711441e-20 0.02367729115)
(-7.490015051e-05 -2.695611362e-18 0.02367232398)
(-8.295702963e-05 7.497189721e-20 0.02366659687)
(-9.077552144e-05 2.844159072e-18 0.02366005716)
(-9.832773242e-05 2.835717248e-18 0.02365264377)
(-0.0001055869113 7.410651384e-20 0.02364428624)
(-0.0001125279304 6.865064705e-20 0.02363490365)
(-0.0001191281041 6.865240876e-20 0.0236244032)
(-0.0001253683988 6.865266976e-20 0.0236126787)
(-0.0001312351093 6.864407631e-20 0.02359960871)
(-0.0001367221267 6.863816637e-20 0.02358505446)
(-0.000141833983 6.864493934e-20 0.02356885741)
(-0.000146589944 6.864602949e-20 0.0235508365)
(-0.0001510294225 6.865031267e-20 0.02353078526)
(-0.0001552191223 6.864390155e-20 0.02350846886)
(-0.0001592624973 6.863836721e-20 0.02348362134)
(-0.0001633120881 6.861317907e-20 0.02345594331)
(-0.0001675854035 6.864614138e-20 0.02342510126)
(-0.0001723852128 6.865303264e-20 0.02339072956)
(-0.0001781251286 6.865879543e-20 0.02335243696)
(-0.000185360869 6.868304074e-20 0.02330982057)
(-0.0001948267016 6.868043411e-20 0.02326249198)
(-0.000207475098 6.86858475e-20 0.02321012136)
(-0.0002245144937 6.866784515e-20 0.02315250688)
(-0.0002474348988 6.870866791e-20 0.02308967859)
(-0.0002780027391 7.234805491e-20 0.0230220439)
(-0.0003181971933 3.941754788e-20 0.02295057621)
(-0.0003700493398 -2.677712247e-18 0.022877032)
(-0.000435343702 6.538773069e-20 0.02280415141)
(-0.0005151626354 6.863103429e-20 0.02273563516)
(-0.0006231519609 6.860899075e-20 0.02267722925)
(-0.001026742628 6.875134962e-20 0.02232441973)
(-0.0006705626861 6.875432959e-20 0.03707846533)
(-9.099621472e-06 6.801931903e-20 0.02370627211)