/*--------------------------------*- C++ -*----------------------------------*\
| =========                 |                                                 |
| \\      /  F ield         | OpenFOAM: The Open Source CFD Toolbox           |
|  \\    /   O peration     | Version:  v1912                                 |
|   \\  /    A nd           | Website:  www.openfoam.com                      |
|    \\/     M anipulation  |                                                 |
\*---------------------------------------------------------------------------*/
FoamFile
{
    version     2.0;
    format      ascii;
    class       volVectorField;
    location    "0.1";
    object      U.gas;
}
// * * * * * * * * * * * * * * * * * * * * * * * * * * * * * * * * * * * * * //

dimensions      [0 1 -1 0 0 0 0];


internalField   nonuniform List<vector> 
4800
(
(-5.341227282e-06 6.83422231e-20 0.01259183182)
(-9.13344984e-06 5.866973065e-20 0.01259181608)
(-1.424147289e-05 -2.676581486e-18 0.01259176632)
(-1.941306791e-05 6.373786641e-20 0.0125916898)
(-2.445080414e-05 6.910682402e-20 0.01259158592)
(-2.925424157e-05 6.909954418e-20 0.01259145374)
(-3.374300755e-05 6.984109155e-20 0.01259129188)
(-3.784049765e-05 5.81976403e-20 0.01259109857)
(-4.146833261e-05 -2.677098273e-18 0.01259087164)
(-4.45435553e-05 7.445204975e-20 0.01259060843)
(-4.697662032e-05 2.82584681e-18 0.01259030576)
(-4.866954121e-05 2.818811904e-18 0.01258995978)
(-4.95139081e-05 7.4482535e-20 0.0125895659)
(-4.938861311e-05 6.911795463e-20 0.01258911863)
(-4.815714989e-05 6.91123107e-20 0.01258861136)
(-4.566431196e-05 6.911020998e-20 0.01258803608)
(-4.173208839e-05 6.910638146e-20 0.0125873831)
(-3.615449435e-05 6.901412249e-20 0.01258664054)
(-2.869098805e-05 6.91093822e-20 0.01258579377)
(-1.905798604e-05 6.911174524e-20 0.01258482459)
(-6.917774653e-06 6.910842665e-20 0.01258371013)
(8.136152714e-06 6.911005591e-20 0.01258242134)
(2.659880317e-05 6.91097623e-20 0.01258092087)
(4.908055872e-05 6.910622352e-20 0.01257915999)
(7.634436176e-05 6.910667718e-20 0.01257707421)
(0.0001093582987 6.910434772e-20 0.01257457666)
(0.0001493715416 6.911144629e-20 0.01257154803)
(0.0001980266054 6.910444278e-20 0.01256782075)
(0.0002575300541 6.909238635e-20 0.01256315341)
(0.0003309206153 6.909452882e-20 0.0125571876)
(0.0004225066922 6.909378625e-20 0.01254937201)
(0.0005386134851 6.908765194e-20 0.01253882169)
(0.0006889307267 6.957105835e-20 0.01252404037)
(0.0008891149298 6.324877248e-20 0.01250232818)
(0.001166260426 -2.666330639e-18 0.01246839378)
(0.001571722595 3.086771918e-20 0.01241069359)
(0.002215686852 7.693720402e-20 0.01230027009)
(0.003376305881 6.909721377e-20 0.01204968093)
(0.005809246129 6.922637908e-20 0.01124649946)
(0.003679027917 6.75584385e-20 0.01476422367)
(-5.537606318e-06 6.893405699e-20 0.02432910497)
(-9.454482725e-06 5.887419639e-20 0.02432904684)
(-1.47355541e-05 -2.739368452e-18 0.02432889768)
(-2.009040913e-05 6.409349486e-20 0.02432866823)
(-2.531597152e-05 6.967724111e-20 0.02432835696)
(-3.03107563e-05 6.968154947e-20 0.02432796091)
(-3.499431215e-05 7.048003327e-20 0.02432747597)
(-3.929033066e-05 5.821544822e-20 0.02432689685)
(-4.312093164e-05 -2.739287637e-18 0.02432621702)
(-4.640381063e-05 7.528330019e-20 0.02432542856)
(-4.905022353e-05 2.890028054e-18 0.02432452192)
(-5.096314768e-05 2.882716018e-18 0.02432348565)
(-5.20353342e-05 7.558772959e-20 0.02432230606)
(-5.214707343e-05 6.976188833e-20 0.0243209667)
(-5.116356272e-05 6.973850424e-20 0.02431944787)
(-4.893170832e-05 6.97501535e-20 0.02431772572)
(-4.52761365e-05 6.973348318e-20 0.02431577133)
(-3.999419363e-05 6.97323663e-20 0.02431354934)
(-3.284960496e-05 6.9729317e-20 0.02431101621)
(-2.356432904e-05 6.972826344e-20 0.02430811781)
(-1.180795284e-05 6.972436387e-20 0.02430478623)
(2.816290063e-06 6.97256141e-20 0.02430093526)
(2.079019934e-05 6.972426221e-20 0.02429645421)
(4.270589387e-05 6.971678937e-20 0.02429119896)
(6.930060986e-05 6.971603462e-20 0.02428497904)
(0.0001015054941 6.971972604e-20 0.02427753844)
(0.0001405152756 6.972436181e-20 0.02426852652)
(0.0001878899769 6.970877116e-20 0.02425745249)
(0.0002457070692 6.971119846e-20 0.02424361209)
(0.0003167954339 6.970974358e-20 0.0242259654)
(0.0004051064777 6.971178699e-20 0.02420292408)
(0.0005163235637 6.97076551e-20 0.02417196307)
(0.0006589013553 7.021499304e-20 0.02412887065)
(0.0008459068292 6.253861487e-20 0.02406619839)
(0.001098378511 -2.724493227e-18 0.02396979368)
(0.001451403346 3.311756694e-20 0.02381028215)
(0.001963290665 7.668634985e-20 0.02351978718)
(0.002713217411 6.988633732e-20 0.02291959769)
(0.003332280055 6.864032025e-20 0.02117423074)
(0.001732019574 6.870752824e-20 0.03046518445)
(-5.599532267e-06 6.908994661e-20 0.0235293588)
(-9.565251291e-06 5.888627897e-20 0.02352925046)
(-1.491288757e-05 -2.736835212e-18 0.02352900235)
(-2.033785422e-05 6.410596619e-20 0.02352862101)
(-2.563677894e-05 6.965451e-20 0.02352810392)
(-3.070861479e-05 6.972488486e-20 0.02352744609)
(-3.547367539e-05 7.04724907e-20 0.02352664069)
(-3.985660174e-05 5.822897863e-20 0.02352567896)
(-4.378063064e-05 -2.736944481e-18 0.02352455012)
(-4.716476773e-05 7.530380351e-20 0.02352324107)
(-4.992181613e-05 2.887585878e-18 0.02352173604)
(-5.195659505e-05 2.880263241e-18 0.02352001614)
(-5.316406695e-05 7.555946731e-20 0.02351805877)
(-5.342721589e-05 6.97515949e-20 0.02351583689)
(-5.261454898e-05 6.97439256e-20 0.02351331801)
(-5.057708056e-05 6.973882112e-20 0.02351046295)
(-4.714459998e-05 6.974750419e-20 0.02350722421)
(-4.212100529e-05 6.985074639e-20 0.02350354379)
(-3.527843492e-05 6.974086043e-20 0.02349935039)
(-2.634978136e-05 6.969062656e-20 0.02349455553)
(-1.501901677e-05 6.970605528e-20 0.02348904836)
(-9.085582242e-07 6.975910799e-20 0.02348268856)
(1.643741972e-05 6.9751187e-20 0.0234752964)
(3.75752904e-05 6.974501428e-20 0.02346663855)
(6.319220158e-05 6.969015435e-20 0.02345640779)
(9.414763222e-05 6.971918601e-20 0.02344419299)
(0.0001315313913 6.971659313e-20 0.02342943399)
(0.0001767458303 6.971639226e-20 0.0234113518)
(0.0002316241966 6.971494098e-20 0.02338883777)
(0.0002986035798 6.971274918e-20 0.02336027191)
(0.0003809806616 6.971369415e-20 0.02332321373)
(0.0004832909934 6.970927991e-20 0.02327385481)
(0.0006118599709 7.029065486e-20 0.02320600428)
(0.0007755354827 6.183403531e-20 0.02310911208)
(0.0009863493207 -2.725474814e-18 0.02296421021)
(0.00125861741 3.773977578e-20 0.02273515593)
(0.00159974241 7.556503932e-20 0.02234911092)
(0.001965664384 6.948623015e-20 0.02165382994)
(0.001755885539 6.97538377e-20 0.01990041093)
(0.0006811993614 6.893639535e-20 0.03238797113)
(-5.697732423e-06 6.909470077e-20 0.02358518041)
(-9.735514719e-06 5.891785874e-20 0.02358502624)
(-1.518256931e-05 -2.737045639e-18 0.02358468042)
(-2.071321898e-05 6.410711363e-20 0.02358414953)
(-2.612289411e-05 6.972214184e-20 0.02358342983)
(-3.131116329e-05 6.971233926e-20 0.0235825144)
(-3.619946913e-05 7.049266337e-20 0.02358139373)
(-4.071387076e-05 5.819812473e-20 0.02358005575)
(-4.477928283e-05 -2.737103787e-18 0.02357848555)
(-4.831668002e-05 7.533533698e-20 0.02357666505)
(-5.124118596e-05 2.88772164e-18 0.02357457251)
(-5.346037347e-05 2.880373072e-18 0.02357218191)
(-5.487250773e-05 7.557668736e-20 0.02356946217)
(-5.536458154e-05 6.97435615e-20 0.02356637611)
(-5.481001621e-05 6.973804828e-20 0.02356287916)
(-5.306590693e-05 6.973916658e-20 0.02355891763)
(-4.996965223e-05 6.97420286e-20 0.02355442655)
(-4.533477825e-05 6.973574919e-20 0.02354932677)
(-3.894574737e-05 6.972817428e-20 0.02354352116)
(-3.055140417e-05 6.969030505e-20 0.02353688953)
(-1.98566197e-05 6.968704775e-20 0.02352928173)
(-6.511559217e-06 6.975442321e-20 0.02352050832)
(9.902246392e-06 6.972103107e-20 0.02351032759)
(2.989008596e-05 6.972134388e-20 0.02349842719)
(5.406801404e-05 6.971825105e-20 0.02348439802)
(8.319469794e-05 6.971791438e-20 0.02346769618)
(0.0001182139257 6.972184514e-20 0.02344758627)
(0.0001603114154 6.972051654e-20 0.02342305539)
(0.0002109903307 6.971432289e-20 0.02339267919)
(0.0002721694578 6.971763339e-20 0.02335440778)
(0.0003463036241 6.971320648e-20 0.02330521356)
(0.0004365088103 6.971425769e-20 0.02324049438)
(0.0005466183538 7.038840941e-20 0.02315303171)
(0.000680925597 6.078657064e-20 0.02303112371)
(0.0008428586143 -2.72161315e-18 0.0228551889)
(0.001030354656 4.319192269e-20 0.02259167433)
(0.001221689205 7.413980934e-20 0.02218311488)
(0.001334049726 6.950083281e-20 0.02153749911)
(0.0008222144405 6.997423495e-20 0.02008846838)
(0.0001496625268 7.064110657e-20 0.0339512185)
(-5.828705973e-06 6.908297945e-20 0.02359050705)
(-9.961319488e-06 5.888566761e-20 0.02359030923)
(-1.553952044e-05 -2.73701625e-18 0.02358986786)
(-2.120985444e-05 6.415876087e-20 0.02358919076)
(-2.676594893e-05 6.962492362e-20 0.02358827306)
(-3.21081214e-05 6.97260391e-20 0.02358710596)
(-3.715927478e-05 7.048436921e-20 0.02358567745)
(-4.184731541e-05 5.816644993e-20 0.02358397226)
(-4.609934571e-05 -2.737229171e-18 0.02358197157)
(-4.983890503e-05 7.536895616e-20 0.0235796526)
(-5.29841331e-05 2.887722739e-18 0.02357698796)
(-5.544617552e-05 2.880267591e-18 0.02357394496)
(-5.712757547e-05 7.556502971e-20 0.02357048455)
(-5.792050417e-05 6.973604577e-20 0.02356656013)
(-5.770471518e-05 6.973729566e-20 0.02356211592)
(-5.634512142e-05 6.973820201e-20 0.02355708488)
(-5.368887381e-05 6.97396627e-20 0.02355138607)
(-4.956179995e-05 6.973374167e-20 0.02354492115)
(-4.37640468e-05 6.972861128e-20 0.0235375698)
(-3.606467268e-05 6.972676602e-20 0.02352918363)
(-2.619490454e-05 6.972533375e-20 0.02351957798)
(-1.383970137e-05 6.972238287e-20 0.02350852086)
(1.372871073e-06 6.972203759e-20 0.02349571779)
(1.988495516e-05 6.971641289e-20 0.02348079056)
(4.222556118e-05 6.972033535e-20 0.02346324724)
(6.903130647e-05 6.971763928e-20 0.02344243922)
(0.0001010716301 6.97178215e-20 0.02341749846)
(0.0001392780632 6.97154188e-20 0.02338724411)
(0.0001847748734 6.971684297e-20 0.02335004109)
(0.0002389025098 6.97165361e-20 0.02330358162)
(0.0003032109134 6.971516581e-20 0.02324454142)
(0.0003793653038 6.971942524e-20 0.02316802998)
(0.0004688242324 7.04760163e-20 0.02306670451)
(0.000571953314 5.955994223e-20 0.02292935122)
(0.0006857852629 -2.727252441e-18 0.02273871062)
(0.0007986721041 4.871712736e-20 0.02246858623)
(0.0008784257089 7.269929418e-20 0.02208178921)
(0.0008451653011 6.976708624e-20 0.02153627417)
(0.0002383095028 6.967876012e-20 0.02039550347)
(-0.0001466332211 6.930932824e-20 0.03491716672)
(-5.991265738e-06 6.916587319e-20 0.02359906418)
(-1.024119671e-05 5.887843531e-20 0.02359882437)
(-1.598168073e-05 -2.737023519e-18 0.02359829025)
(-2.182490344e-05 6.413567803e-20 0.02359747119)
(-2.756220471e-05 6.972211577e-20 0.0235963613)
(-3.30947844e-05 6.970410384e-20 0.02359495004)
(-3.834731485e-05 7.049213408e-20 0.02359322301)
(-4.324994911e-05 5.812328544e-20 0.02359116197)
(-4.773245026e-05 -2.737106784e-18 0.02358874446)
(-5.172147162e-05 7.546997285e-20 0.0235859433)
(-5.513880418e-05 2.887913297e-18 0.02358272592)
(-5.789990987e-05 2.880237153e-18 0.02357905342)
(-5.991248578e-05 7.550638604e-20 0.02357487948)
(-6.10749218e-05 6.974573902e-20 0.02357014892)
(-6.127455059e-05 6.973811563e-20 0.02356479583)
(-6.038560957e-05 6.97395096e-20 0.02355874125)
(-5.826684019e-05 6.973440109e-20 0.02355189007)
(-5.47586261e-05 6.972289969e-20 0.02354412713)
(-4.967958055e-05 6.972907465e-20 0.02353531204)
(-4.282243082e-05 6.97285531e-20 0.02352527242)
(-3.394907041e-05 6.972512259e-20 0.02351379473)
(-2.278464761e-05 6.972595921e-20 0.0235006122)
(-9.010544727e-06 6.971694862e-20 0.02348538826)
(7.743760468e-06 6.971721001e-20 0.02346769384)
(2.790975835e-05 6.971266811e-20 0.0234469757)
(5.198926037e-05 6.971539096e-20 0.02342251181)
(8.056247977e-05 6.971766381e-20 0.0233933477)
(0.0001142910593 6.972218013e-20 0.0233582044)
(0.0001539079056 6.971391753e-20 0.02331534353)
(0.00020017675 6.971620388e-20 0.02326236789)
(0.0002537857357 6.971316069e-20 0.02319592489)
(0.0003151008878 6.972460179e-20 0.02311126734)
(0.0003836271126 7.060204973e-20 0.02300161776)
(0.0004568710383 5.811646969e-20 0.02285730615)
(0.0005280256285 -2.726434844e-18 0.02266479657)
(0.0005815162913 5.377284729e-20 0.02240623913)
(0.0005853734455 7.152490998e-20 0.02206171365)
(0.0004738310429 6.973174819e-20 0.02162012233)
(-0.0001475347513 6.967031848e-20 0.02071417216)
(-0.0003266241223 6.909985017e-20 0.03558020245)
(-6.184258703e-06 6.908823167e-20 0.0236076901)
(-1.057333182e-05 5.878892023e-20 0.02360740998)
(-1.650626521e-05 -2.737039145e-18 0.02360678646)
(-2.255447966e-05 6.408104874e-20 0.02360583053)
(-2.850657273e-05 6.972701543e-20 0.02360453542)
(-3.426474967e-05 6.973763146e-20 0.02360288895)
(-3.975573379e-05 7.051778081e-20 0.02360087456)
(-4.49122888e-05 5.806244365e-20 0.02359847125)
(-4.966726728e-05 -2.737120226e-18 0.02359565323)
(-5.395092557e-05 7.545934553e-20 0.02359238932)
(-5.768926908e-05 2.887907751e-18 0.02358864219)
(-6.080272669e-05 2.880337056e-18 0.0235843674)
(-6.320490637e-05 7.551850183e-20 0.02357951211)
(-6.480130351e-05 6.973390906e-20 0.02357401353)
(-6.548787338e-05 6.973853603e-20 0.02356779688)
(-6.514941954e-05 6.973929335e-20 0.02356077284)
(-6.365775669e-05 6.973604146e-20 0.02355283422)
(-6.086959899e-05 6.972357658e-20 0.0235438517)
(-5.662415066e-05 6.972495636e-20 0.02353366836)
(-5.07403555e-05 6.972589902e-20 0.02352209244)
(-4.301381918e-05 6.972963953e-20 0.02350888777)
(-3.321348193e-05 6.971739815e-20 0.02349376118)
(-2.107821405e-05 6.971974103e-20 0.02347634553)
(-6.31381163e-06 6.971723106e-20 0.02345617684)
(1.14087725e-05 6.971629216e-20 0.02343266287)
(3.245224369e-05 6.971334366e-20 0.02340503996)
(5.720565797e-05 6.971882042e-20 0.02337231304)
(8.606505701e-05 6.972188893e-20 0.0233331718)
(0.0001193906837 6.971385336e-20 0.02328587304)
(0.0001574197963 6.971710997e-20 0.02322807612)
(0.0002000960433 6.971753323e-20 0.02315661585)
(0.0002467436455 6.972547554e-20 0.02306720018)
(0.0002954578814 7.07820332e-20 0.02295404003)
(0.000341994619 5.648324175e-20 0.0228094892)
(0.000377837307 -2.728365912e-18 0.02262396749)
(0.0003871196269 5.798510783e-20 0.02238691772)
(0.0003426314109 7.061788631e-20 0.02209054196)
(0.0001924242692 6.971367662e-20 0.02173978622)
(-0.0004093366551 6.966184628e-20 0.02100544464)
(-0.0004394919968 6.889607603e-20 0.03605766334)
(-6.406449256e-06 6.909188077e-20 0.02361661792)
(-1.095565481e-05 5.881465208e-20 0.0236162993)
(-1.711002953e-05 -2.737094962e-18 0.02361559022)
(-2.339404812e-05 6.411098185e-20 0.0236145033)
(-2.959311949e-05 6.972759992e-20 0.02361303099)
(-3.561055771e-05 6.972635403e-20 0.02361115965)
(-4.137538908e-05 7.052605859e-20 0.02360887073)
(-4.682331134e-05 5.800842051e-20 0.02360614077)
(-5.189064194e-05 -2.737116745e-18 0.02360294096)
(-5.651166722e-05 7.556487761e-20 0.02359923655)
(-6.061708704e-05 2.887858725e-18 0.023594986)
(-6.413284518e-05 2.880219469e-18 0.02359013998)
(-6.697908643e-05 7.552075217e-20 0.02358463999)
(-6.906912732e-05 6.973463952e-20 0.0235784167)
(-7.030837045e-05 6.974024996e-20 0.02357138782)
(-7.059313774e-05 6.973629002e-20 0.0235634554)
(-6.980941618e-05 6.973776282e-20 0.02355450238)
(-6.783151351e-05 6.954151713e-20 0.02354438817)
(-6.452065737e-05 6.971951356e-20 0.02353294301)
(-5.972361136e-05 6.972904199e-20 0.02351996068)
(-5.327143702e-05 6.973090718e-20 0.02350518886)
(-4.497865446e-05 6.972026551e-20 0.0234883166)
(-3.464325306e-05 6.971938782e-20 0.02346895787)
(-2.204838668e-05 6.971674326e-20 0.02344662956)
(-6.967136741e-06 6.971772505e-20 0.02342072213)
(1.082734504e-05 6.971221593e-20 0.02339046035)
(3.154209947e-05 6.971653923e-20 0.02335485043)
(5.532790393e-05 6.971623036e-20 0.0233126093)
(8.221400111e-05 6.971208906e-20 0.02326207063)
(0.0001119929682 6.971564193e-20 0.02320106292)
(0.0001440204012 6.971039309e-20 0.02312675828)
(0.0001768715526 6.972267039e-20 0.02303550381)
(0.0002077655028 7.101099545e-20 0.02292268056)
(0.000231635598 5.464667995e-20 0.02278271545)
(0.0002397319102 -2.726811767e-18 0.02260954296)
(0.0002178096205 6.117926786e-20 0.0223981355)
(0.0001445868117 7.000422398e-20 0.0221481804)
(-1.962682035e-05 6.968846451e-20 0.02187158474)
(-0.0005901414059 6.96987789e-20 0.02125881333)
(-0.0005130219741 6.929046367e-20 0.0364175275)
(-6.656474883e-06 6.907899549e-20 0.02362587622)
(-1.138583543e-05 5.883033302e-20 0.02362552109)
(-1.778929153e-05 -2.737083659e-18 0.02362473073)
(-2.433845677e-05 6.416021375e-20 0.02362351941)
(-3.08151066e-05 6.963735102e-20 0.0236218789)
(-3.712374569e-05 6.972518058e-20 0.02361979426)
(-4.319592087e-05 7.052587194e-20 0.02361724519)
(-4.897054316e-05 5.795554893e-20 0.02361420602)
(-5.438771451e-05 -2.737254861e-18 0.02361064531)
(-5.938610669e-05 7.563428176e-20 0.02360652517)
(-6.390150881e-05 2.887968735e-18 0.02360180046)
(-6.786581593e-05 2.88010687e-18 0.02359641765)
(-7.120619574e-05 7.550481003e-20 0.02359031347)
(-7.384432488e-05 6.97322768e-20 0.02358341321)
(-7.569564785e-05 6.973743908e-20 0.02357562848)
(-7.666865846e-05 6.973537589e-20 0.02356685451)
(-7.666422149e-05 6.97291217e-20 0.02355696667)
(-7.557497907e-05 6.972159866e-20 0.02354581604)
(-7.328492508e-05 6.972372939e-20 0.02353322385)
(-6.96693196e-05 6.972168324e-20 0.02351897431)
(-6.459516526e-05 6.973136504e-20 0.02350280539)
(-5.792263786e-05 6.97166913e-20 0.02348439683)
(-4.95081286e-05 6.972535213e-20 0.02346335482)
(-3.920994779e-05 6.971996565e-20 0.02343919204)
(-2.689844626e-05 6.971629353e-20 0.02341130151)
(-1.247320956e-05 6.971787152e-20 0.02337892298)
(4.10826167e-06 6.971498322e-20 0.02334109945)
(2.278305019e-05 6.971497445e-20 0.02329662219)
(4.330499825e-05 6.971291066e-20 0.02324396287)
(6.511868331e-05 6.970520324e-20 0.02318119493)
(8.71574063e-05 6.971255586e-20 0.02310591305)
(0.0001075253713 6.973817121e-20 0.02301517685)
(0.0001230140979 7.129492854e-20 0.02290553939)
(0.0001284087745 5.259208893e-20 0.02277328999)
(0.0001156011001 -2.727438059e-18 0.02261515979)
(7.27276857e-05 6.323350896e-20 0.02242990628)
(-1.593465573e-05 6.973213979e-20 0.02222127994)
(-0.0001809863839 6.968504397e-20 0.02200320038)
(-0.0007192340981 6.971746105e-20 0.02147538269)
(-0.0005633541218 6.914104983e-20 0.03669908996)
(-6.93283835e-06 6.91450764e-20 0.02363550364)
(-1.186129802e-05 5.879640026e-20 0.02363511418)
(-1.853997176e-05 -2.737076735e-18 0.02363424726)
(-2.538199516e-05 6.414864497e-20 0.02363291876)
(-3.216507099e-05 6.96022454e-20 0.02363111992)
(-3.879495115e-05 6.972303294e-20 0.02362883465)
(-4.520588528e-05 7.053695875e-20 0.02362604115)
(-5.134022816e-05 5.788564364e-20 0.02362271184)
(-5.714212659e-05 -2.737258683e-18 0.023618813)
(-6.25549204e-05 7.571463684e-20 0.02361430411)
(-6.751979163e-05 2.88803619e-18 0.02360913699)
(-7.19749123e-05 2.879977491e-18 0.02360325467)
(-7.585481661e-05 7.548441219e-20 0.02359659007)
(-7.908989944e-05 6.973046789e-20 0.02358906419)
(-8.160601201e-05 6.973656598e-20 0.02358058404)
(-8.332417442e-05 6.97309864e-20 0.02357103983)
(-8.416044751e-05 6.973108851e-20 0.02356030168)
(-8.402604593e-05 6.972238445e-20 0.02354821528)
(-8.282781581e-05 6.971551339e-20 0.02353459652)
(-8.04693246e-05 6.971768345e-20 0.02351922484)
(-7.685285048e-05 6.97188383e-20 0.0235018346)
(-7.188277678e-05 6.971629374e-20 0.02348210416)
(-6.547115196e-05 6.971841886e-20 0.02345964215)
(-5.754657246e-05 6.969495543e-20 0.02343397023)
(-4.80683034e-05 6.971385764e-20 0.02340450117)
(-3.704834244e-05 6.970971617e-20 0.02337051167)
(-2.458567846e-05 6.970872486e-20 0.02333110939)
(-1.09192565e-05 6.971012127e-20 0.02328519424)
(3.490642936e-06 6.970403758e-20 0.02323141592)
(1.783876205e-05 6.970922171e-20 0.02316813427)
(3.079026194e-05 6.970974985e-20 0.02309339725)
(4.021289726e-05 6.973958282e-20 0.02300496784)
(4.280734853e-05 7.164048765e-20 0.02290046061)
(3.364226224e-05 5.02070779e-20 0.0227776971)
(5.676124521e-06 -2.725841881e-18 0.02263545601)
(-5.047952555e-05 6.419696985e-20 0.02247485005)
(-0.0001459724797 6.959653312e-20 0.02230144332)
(-0.0003051446414 6.973026536e-20 0.0221287463)
(-0.0008139194634 6.954981259e-20 0.02166079365)
(-0.0005991934233 6.653709861e-20 0.03692617042)
(-7.233914681e-06 6.928717405e-20 0.02364553596)
(-1.237924447e-05 5.8915898e-20 0.0236451145)
(-1.935763595e-05 -2.737085202e-18 0.02364417607)
(-2.651845772e-05 6.406180611e-20 0.0236427382)
(-3.363490984e-05 6.967407117e-20 0.02364079165)
(-4.061402303e-05 6.96159855e-20 0.02363831941)
(-4.739289178e-05 7.043784437e-20 0.02363529837)
(-5.391749771e-05 5.766820536e-20 0.02363169936)
(-6.013623111e-05 -2.737098612e-18 0.02362748679)
(-6.599730981e-05 7.564348265e-20 0.02362261796)
(-7.144752453e-05 2.887948509e-18 0.02361704226)
(-7.643153605e-05 2.879790086e-18 0.02361070005)
(-8.089144747e-05 7.520811545e-20 0.02360352133)
(-8.476655409e-05 6.949637276e-20 0.02359542402)
(-8.799325585e-05 6.94967421e-20 0.02358631189)
(-9.050516843e-05 6.948191838e-20 0.02357607198)
(-9.223350258e-05 6.947617998e-20 0.02356457135)
(-9.310781427e-05 6.946959493e-20 0.02355165311)
(-9.305729191e-05 6.946435637e-20 0.02353713136)
(-9.201284973e-05 6.946980116e-20 0.02352078519)
(-8.991038635e-05 6.947517439e-20 0.02350235095)
(-8.669577387e-05 6.948164366e-20 0.02348151269)
(-8.233234847e-05 6.952905531e-20 0.02345789042)
(-7.681209705e-05 6.953937278e-20 0.02343102596)
(-7.017239983e-05 6.94870808e-20 0.02340036566)
(-6.25208838e-05 6.955160588e-20 0.02336524011)
(-5.407207391e-05 6.958267436e-20 0.02332484151)
(-4.520116168e-05 6.959411655e-20 0.02327820023)
(-3.652227272e-05 6.96230191e-20 0.02322416492)
(-2.900048486e-05 6.964727719e-20 0.02316139473)
(-2.410803184e-05 6.96686892e-20 0.02308838078)
(-2.403302384e-05 6.969032841e-20 0.02300352721)
(-3.193760937e-05 7.203192379e-20 0.0229053436)
(-5.22315384e-05 4.74838972e-20 0.02279282873)
(-9.076028775e-05 -2.72415644e-18 0.02266615258)
(-0.0001546860996 6.437306638e-20 0.02252773535)
(-0.0002516554699 6.890483834e-20 0.02238362034)
(-0.0004018970266 6.868752818e-20 0.02224588774)
(-0.0008850197452 6.714749356e-20 0.02182079561)
(-0.0006255277668 6.738255282e-20 0.03711391316)
(-7.557968612e-06 6.917757931e-20 0.0236560066)
(-1.293668155e-05 5.875478236e-20 0.02365555563)
(-2.023753933e-05 -2.737106147e-18 0.02365455108)
(-2.77412094e-05 6.418587453e-20 0.02365301211)
(-3.521596814e-05 6.959528425e-20 0.02365092914)
(-4.257013154e-05 6.972979041e-20 0.02364828439)
(-4.974374364e-05 7.056828613e-20 0.02364505369)
(-5.668654564e-05 5.772905447e-20 0.02364120659)
(-6.335131172e-05 -2.737261063e-18 0.02363670599)
(-6.969127481e-05 7.59057571e-20 0.02363150753)
(-7.565896095e-05 2.888186815e-18 0.02362555874)
(-8.120562607e-05 2.879953548e-18 0.02361879805)
(-8.628101015e-05 7.543294786e-20 0.02361115343)
(-9.083332191e-05 6.972835289e-20 0.02360254084)
(-9.480944172e-05 6.973033681e-20 0.02359286222)
(-9.815538878e-05 6.97249324e-20 0.0235820031)
(-0.0001008171476 6.972138267e-20 0.0235698296)
(-0.000102741969 6.971609831e-20 0.02355618484)
(-0.0001038803548 6.971550187e-20 0.02354088437)
(-0.0001041889608 6.971705105e-20 0.02352371091)
(-0.0001036348504 6.971274655e-20 0.02350440772)
(-0.0001022016694 6.971682518e-20 0.02348267058)
(-9.989848214e-05 6.97123626e-20 0.02345813833)
(-9.677241802e-05 6.97181764e-20 0.02343038182)
(-9.292675102e-05 6.970475717e-20 0.02339889141)
(-8.854669673e-05 6.970518374e-20 0.02336306338)
(-8.393586383e-05 6.971255263e-20 0.02332218671)
(-7.95672707e-05 6.970819227e-20 0.02327543309)
(-7.615387746e-05 6.970369836e-20 0.02322185526)
(-7.474382688e-05 6.972398136e-20 0.02316040313)
(-7.68441474e-05 6.974655845e-20 0.02308997401)
(-8.457135839e-05 6.978426338e-20 0.02300952294)
(-0.0001008137262 7.25459908e-20 0.02291827236)
(-0.0001293612099 4.51402416e-20 0.02281607253)
(-0.000174908849 -2.722206148e-18 0.02270396644)
(-0.0002427649965 6.515674983e-20 0.02258497596)
(-0.0003380109384 6.973977183e-20 0.02246490483)
(-0.000478278489 6.96006204e-20 0.02235411291)
(-0.0009395365537 6.978198541e-20 0.02196026899)
(-0.0006453911014 7.17858181e-20 0.03727239694)
(-7.903165073e-06 6.908268458e-20 0.0236669465)
(-1.353044728e-05 5.873312219e-20 0.02366646861)
(-2.117467348e-05 -2.737119759e-18 0.02366540359)
(-2.904325104e-05 6.419593904e-20 0.02366377221)
(-3.689912673e-05 6.958219498e-20 0.02366156466)
(-4.465188347e-05 6.973243712e-20 0.02365876254)
(-5.22445812e-05 7.058420309e-20 0.02365534087)
(-5.963080669e-05 5.764652227e-20 0.02365126821)
(-6.676780005e-05 -2.737266687e-18 0.02364650634)
(-7.36138792e-05 7.602259567e-20 0.02364100967)
(-8.012734973e-05 2.888267357e-18 0.0236347245)
(-8.626606484e-05 2.879725535e-18 0.02362758799)
(-9.198734603e-05 7.542000801e-20 0.02361952698)
(-9.724817461e-05 6.973661191e-20 0.02361045649)
(-0.0001020056518 6.973490824e-20 0.02360027793)
(-0.000106217775 6.972691636e-20 0.02358887688)
(-0.0001098446414 6.972578969e-20 0.02357612045)
(-0.0001128502077 6.97274352e-20 0.02356185409)
(-0.0001152048256 6.972267469e-20 0.02354589769)
(-0.0001168887732 6.972118805e-20 0.023528041)
(-0.0001178972177 6.972876885e-20 0.02350803834)
(-0.0001182471645 6.972110559e-20 0.0234856022)
(-0.0001179871015 6.972013864e-20 0.02346039597)
(-0.0001172103199 6.974184622e-20 0.02343202615)
(-0.0001160732454 6.971180657e-20 0.0234000342)
(-0.0001148206698 6.972167323e-20 0.02336388912)
(-0.0001138200494 6.972685545e-20 0.02332298234)
(-0.0001136073873 6.973229378e-20 0.02327662862)
(-0.0001149474428 6.973980734e-20 0.02322407802)
(-0.0001189102086 6.975209667e-20 0.02316454828)
(-0.0001269626875 6.976614677e-20 0.02309729099)
(-0.0001410684616 6.981131721e-20 0.02302171245)
(-0.000163774697 7.288104304e-20 0.02293757526)
(-0.0001982432476 4.311341808e-20 0.02284530943)
(-0.0002481492362 -2.720921369e-18 0.0227464504)
(-0.000317330584 6.571054125e-20 0.02264417803)
(-0.0004090469565 6.968225709e-20 0.02254371835)
(-0.0005393499269 6.977798257e-20 0.02245377408)
(-0.0009821200348 6.970798592e-20 0.02208313474)
(-0.0006607098115 6.688174754e-20 0.03740856993)
(-8.26758943e-06 6.907613539e-20 0.02367838394)
(-1.41572419e-05 5.885504806e-20 0.02367788183)
(-2.216381263e-05 -2.737096918e-18 0.02367676221)
(-3.041728656e-05 6.417354209e-20 0.02367504743)
(-3.867489123e-05 6.969273266e-20 0.02367272756)
(-4.684743524e-05 6.987033937e-20 0.02366978376)
(-5.488102367e-05 7.076705163e-20 0.02366619043)
(-6.273312995e-05 5.77317104e-20 0.02366191545)
(-7.036549132e-05 -2.737077852e-18 0.02365691981)
(-7.774151514e-05 7.635466741e-20 0.02365115719)
(-8.482525319e-05 2.888627136e-18 0.02364457314)
(-9.158106623e-05 2.880017262e-18 0.02363710425)
(-9.797368781e-05 7.562542303e-20 0.02362867701)
(-0.0001039685955 7.003047369e-20 0.02361920649)
(-0.0001095326882 7.00338652e-20 0.02360859471)
(-0.0001146353194 7.004499443e-20 0.02359672873)
(-0.0001192498013 7.004709198e-20 0.02358347833)
(-0.0001233555267 6.973619121e-20 0.02356869334)
(-0.0001269408973 7.006876406e-20 0.02355220038)
(-0.0001300073218 7.00684645e-20 0.02353379911)
(-0.0001325746004 7.008415239e-20 0.02351325822)
(-0.000134688275 7.008170689e-20 0.02349031066)
(-0.0001364295979 7.004681354e-20 0.0234646486)
(-0.0001379288466 7.00477512e-20 0.02343591853)
(-0.0001393830729 7.013274835e-20 0.02340371708)
(-0.0001410796347 7.010376186e-20 0.02336758886)
(-0.0001434270154 7.011686678e-20 0.02332702802)
(-0.0001469942439 7.014595002e-20 0.02328148722)
(-0.0001525598423 7.016631196e-20 0.02323039907)
(-0.0001611698475 7.019352665e-20 0.02317321773)
(-0.0001742010535 7.022418321e-20 0.0231094916)
(-0.0001934192008 7.027958288e-20 0.02303898143)
(-0.0002210112103 7.380782715e-20 0.02296183988)
(-0.0002595541724 4.196674241e-20 0.02287886432)
(-0.0003118642523 -2.720630974e-18 0.02279181905)
(-0.0003806512147 6.714572413e-20 0.02270378337)
(-0.0004679124697 7.089232748e-20 0.02261928844)
(-0.0005887791536 7.144434319e-20 0.02254558365)
(-0.001015937135 7.233083718e-20 0.02219248178)
(-0.0006727508831 7.083338499e-20 0.03752736578)
(-8.649261975e-06 6.908801509e-20 0.02369034448)
(-1.481365458e-05 5.869340813e-20 0.02368982093)
(-2.319955977e-05 -2.737137347e-18 0.02368865275)
(-3.185578752e-05 6.420635485e-20 0.02368686385)
(-4.053347637e-05 6.957093619e-20 0.02368444425)
(-4.914459979e-05 6.973333332e-20 0.02368137483)
(-5.763830402e-05 7.06171984e-20 0.02367762961)
(-6.597594848e-05 5.74713376e-20 0.02367317601)
(-7.412374939e-05 -2.737270053e-18 0.02366797464)
(-8.205015171e-05 7.625467643e-20 0.02366197879)
(-8.972484877e-05 2.888351912e-18 0.0236551338)
(-9.71185384e-05 2.879643037e-18 0.02364737627)
(-0.0001042031009 7.536643829e-20 0.02363863308)
(-0.0001109521153 6.97329656e-20 0.0236288202)
(-0.000117341718 6.973447785e-20 0.02361784129)
(-0.0001233518354 6.973393778e-20 0.02360558613)
(-0.0001289679161 6.972563524e-20 0.02359192861)
(-0.0001341833064 6.971980212e-20 0.02357672462)
(-0.0001390024323 6.972612093e-20 0.02355980947)
(-0.0001434450876 6.972794161e-20 0.02354099502)
(-0.0001475520105 6.973216742e-20 0.02352006677)
(-0.0001513923041 6.972525921e-20 0.02349678079)
(-0.0001550732947 6.971940823e-20 0.02347086071)
(-0.0001587533318 6.969505057e-20 0.02344199536)
(-0.0001626583232 6.972762159e-20 0.02340983803)
(-0.0001671028327 6.973520188e-20 0.02337400846)
(-0.0001725166666 6.974008782e-20 0.0233340996)
(-0.0001794773405 6.976570692e-20 0.02328969216)
(-0.0001887480003 6.976281943e-20 0.02324038157)
(-0.0002013187672 6.976879565e-20 0.02318582365)
(-0.0002184461784 6.974958577e-20 0.02312580667)
(-0.0002416799498 6.979182434e-20 0.02306035903)
(-0.0002728582179 7.353310223e-20 0.02298990054)
(-0.0003140418128 3.955958534e-20 0.0229154383)
(-0.000367348471 -2.718783564e-18 0.02283879262)
(-0.0004346434121 6.636890249e-20 0.02276280674)
(-0.000517067295 6.971410377e-20 0.02269131919)
(-0.0006292490691 6.968678296e-20 0.02263036296)
(-0.001043192138 6.981383926e-20 0.02229073159)
(-0.0006823725943 6.992834187e-20 0.03763237744)
(-9.046153546e-06 6.908212167e-20 0.02370285087)