/*--------------------------------*- C++ -*----------------------------------*\
| =========                 |                                                 |
| \\      /  F ield         | OpenFOAM: The Open Source CFD Toolbox           |
|  \\    /   O peration     | Version:  v1912                                 |
|   \\  /    A nd           | Website:  www.openfoam.com                      |
|    \\/     M anipulation  |                                                 |
\*---------------------------------------------------------------------------*/
FoamFile
{
    version     2.0;
    format      ascii;
    class       volVectorField;
    location    "0.1";
    object      U.liquid_0;
}
// * * * * * * * * * * * * * * * * * * * * * * * * * * * * * * * * * * * * * //

dimensions      [0 1 -1 0 0 0 0];


internalField   nonuniform List<vector> 
4800
(
(-5.72849267e-06 6.731800583e-20 4.046366519e-06)
(-9.800328991e-06 5.791820898e-20 4.032124227e-06)
(-1.529547272e-05 -2.638714303e-18 3.985854363e-06)
(-2.088057059e-05 6.284369928e-20 3.914682221e-06)
(-2.635328736e-05 6.804796381e-20 3.818055989e-06)
(-3.161543948e-05 6.804029352e-20 3.695069372e-06)
(-3.65908171e-05 6.876686083e-20 3.54442921e-06)
(-4.120781359e-05 5.74373764e-20 3.364475784e-06)
(-4.53936185e-05 -2.6392101e-18 3.153157331e-06)
(-4.907137542e-05 7.32735301e-20 2.907977405e-06)
(-5.215820851e-05 2.785556457e-18 2.625928932e-06)
(-5.456344081e-05 2.778667991e-18 2.30340738e-06)
(-5.618672591e-05 7.324941848e-20 1.936098442e-06)
(-5.691592363e-05 6.805906904e-20 1.518826228e-06)
(-5.662458337e-05 6.805390811e-20 1.045370706e-06)
(-5.51688591e-05 6.805174794e-20 5.082146387e-07)
(-5.238367914e-05 6.804792452e-20 -1.017663941e-07)
(-4.807794508e-05 6.792163028e-20 -7.957342626e-07)
(-4.20284167e-05 6.805104403e-20 -1.587449061e-06)
(-3.39718144e-05 6.805330962e-20 -2.494028385e-06)
(-2.359449003e-05 6.804977681e-20 -3.536975292e-06)
(-1.051876434e-05 6.805157852e-20 -4.743606585e-06)
(5.715387895e-06 6.805118341e-20 -6.14904616e-06)
(2.567532598e-05 6.804763022e-20 -7.799104112e-06)
(5.007041791e-05 6.804839903e-20 -9.754437763e-06)
(7.980102892e-05 6.804581922e-20 -1.209676525e-05)
(0.0001160292396 6.805314151e-20 -1.493834794e-05)
(0.000160283454 6.80460817e-20 -1.843687333e-05)
(0.0002146175588 6.803477043e-20 -2.281961813e-05)
(0.0002818610166 6.803634166e-20 -2.842410907e-05)
(0.0003660271546 6.803455065e-20 -3.576975374e-05)
(0.0004730107148 6.803303736e-20 -4.569066065e-05)
(0.0006118468063 6.85160363e-20 -5.959791225e-05)
(0.0007971430906 6.201743186e-20 -8.003928317e-05)
(0.0010541962 -2.629333264e-18 -0.000112011612)
(0.001430988003 3.270226635e-20 -0.0001664249985)
(0.002030482697 7.527169752e-20 -0.0002706712104)
(0.003114727858 6.803693674e-20 -0.0005074763941)
(0.005511659775 6.817697125e-20 -0.001184093197)
(0.00353793628 6.64489528e-20 0.002450645813)
(-5.894268529e-06 6.788820505e-20 1.225635171e-05)
(-1.006883773e-05 5.811828765e-20 1.220278565e-05)
(-1.570671889e-05 -2.66180835e-18 1.206401007e-05)
(-2.144277497e-05 6.319134456e-20 1.185050037e-05)
(-2.706945675e-05 6.859359417e-20 1.156079617e-05)
(-3.248740204e-05 6.860384239e-20 1.119211515e-05)
(-3.76200344e-05 6.938531534e-20 1.074056802e-05)
(-4.239568753e-05 5.746144817e-20 1.020118376e-05)
(-4.674165343e-05 -2.661713206e-18 9.567820207e-06)
(-5.0581292e-05 7.40763171e-20 8.833010144e-06)
(-5.383204362e-05 2.809998686e-18 7.987764338e-06)
(-5.640365452e-05 2.802844426e-18 7.02131184e-06)
(-5.819633657e-05 7.431394113e-20 5.920761464e-06)
(-5.909868198e-05 6.868317753e-20 4.670654466e-06)
(-5.898518344e-05 6.866036173e-20 3.2524234e-06)
(-5.771322329e-05 6.867212181e-20 1.643649861e-06)
(-5.511934881e-05 6.865535782e-20 -1.828748784e-07)
(-5.101460991e-05 6.865419749e-20 -2.260410355e-06)
(-4.517863496e-05 6.865152839e-20 -4.629927646e-06)
(-3.735200063e-05 6.865054218e-20 -7.342341047e-06)
(-2.722630797e-05 6.864667003e-20 -1.046155082e-05)
(-1.443111328e-05 6.864770308e-20 -1.406864226e-05)
(1.483526851e-06 6.864616691e-20 -1.826774637e-05)
(2.107070483e-05 6.863850553e-20 -2.319444559e-05)
(4.501923581e-05 6.863833391e-20 -2.902795019e-05)
(7.419931511e-05 6.86421722e-20 -3.600917595e-05)
(0.0001097277136 6.864699191e-20 -4.44681837e-05)
(0.000153062993 6.863153639e-20 -5.486706949e-05)
(0.0002061479994 6.863403939e-20 -6.786906279e-05)
(0.000271629061 6.863276053e-20 -8.44538646e-05)
(0.0003532038002 6.863533872e-20 -0.0001061184098)
(0.0004561924306 6.863116949e-20 -0.0001352434641)
(0.0005885123061 6.914101046e-20 -0.0001758020966)
(0.0007624043226 6.133628777e-20 -0.000234824631)
(0.00099758178 -2.648150267e-18 -0.0003256773002)
(0.001326915312 3.482216777e-20 -0.0004761199688)
(0.001804935623 7.507005222e-20 -0.0007503368954)
(0.002503711823 6.880842277e-20 -0.001317340541)
(0.003360453051 6.757501799e-20 -0.002697018984)
(0.001874964005 6.764428627e-20 0.006423567202)
(-5.952606176e-06 6.803921746e-20 2.062476448e-05)
(-1.017335687e-05 5.813534814e-20 2.052413563e-05)
(-1.587415443e-05 -2.661874689e-18 2.029326393e-05)
(-2.167647822e-05 6.320285929e-20 1.99383509e-05)
(-2.737253246e-05 6.857046832e-20 1.945700392e-05)
(-3.286338002e-05 6.864572286e-20 1.884453295e-05)
(-3.80731746e-05 6.93776494e-20 1.809448006e-05)
(-4.293115598e-05 5.747464838e-20 1.719861521e-05)
(-4.736568464e-05 -2.661979301e-18 1.614677703e-05)
(-5.13013701e-05 7.409545857e-20 1.492662471e-05)
(-5.465711961e-05 2.810154995e-18 1.35233144e-05)
(-5.734442399e-05 2.802992374e-18 1.191907039e-05)
(-5.926559362e-05 7.428699885e-20 1.009262836e-05)
(-6.031177066e-05 6.867314691e-20 8.018515371e-06)
(-6.036057629e-05 6.866561131e-20 5.666161511e-06)
(-5.927326903e-05 6.866080769e-20 2.998706206e-06)
(-5.68912644e-05 6.866933206e-20 -2.854844017e-08)
(-5.303179436e-05 6.880368402e-20 -3.470164074e-06)
(-4.748241368e-05 6.86627715e-20 -7.393252371e-06)
(-3.999398738e-05 6.86128793e-20 -1.188105891e-05)
(-3.027164622e-05 6.862834328e-20 -1.703786471e-05)
(-1.796298673e-05 6.868106193e-20 -2.299569741e-05)
(-2.642479401e-06 6.867335851e-20 -2.992367777e-05)
(1.620938726e-05 6.866716469e-20 -3.804131394e-05)
(3.923436971e-05 6.861204852e-20 -4.763770893e-05)
(6.723533657e-05 6.86411629e-20 -5.909982787e-05)
(0.000101230516 6.863871085e-20 -7.295501451e-05)
(0.0001425303936 6.863899616e-20 -8.993676839e-05)
(0.0001928484435 6.863802571e-20 -0.0001110892241)
(0.0002544629782 6.863455301e-20 -0.0001379386146)
(0.0003304565067 6.863858696e-20 -0.0001727849853)
(0.0004250705875 6.863488057e-20 -0.0002192190392)
(0.0005442209644 6.921200512e-20 -0.0002830803602)
(0.0006961810796 6.067057552e-20 -0.0003743251621)
(0.0008921921848 -2.651415805e-18 -0.0005108623987)
(0.001145585375 3.912997067e-20 -0.0007268325139)
(0.001463029734 7.398559476e-20 -0.001091060851)
(0.001801866784 6.844666172e-20 -0.001747388756)
(0.001878908546 6.859570134e-20 -0.002984223087)
(0.0008865440995 6.796392398e-20 0.008822817005)
(-6.043184929e-06 6.803891365e-20 2.909833024e-05)
(-1.033048049e-05 5.816116238e-20 2.895499768e-05)
(-1.612308275e-05 -2.661937525e-18 2.863323965e-05)
(-2.202301497e-05 6.320404227e-20 2.813919307e-05)
(-2.782140309e-05 6.864391329e-20 2.746932559e-05)
(-3.341989128e-05 6.863391219e-20 2.661710172e-05)
(-3.874368848e-05 6.939714122e-20 2.557357946e-05)
(-4.372336346e-05 5.744559385e-20 2.432737901e-05)
(-4.828885037e-05 -2.661986777e-18 2.286446295e-05)
(-5.236659975e-05 7.412481361e-20 2.116780202e-05)
(-5.587768344e-05 2.810137902e-18 1.921693167e-05)
(-5.873616522e-05 2.802952524e-18 1.698736556e-05)
(-6.084744502e-05 7.430476803e-20 1.444984261e-05)
(-6.210641033e-05 6.866517621e-20 1.156936261e-05)
(-6.239526945e-05 6.865991149e-20 8.303974092e-06)
(-6.158096179e-05 6.866103532e-20 4.603174318e-06)
(-5.951201706e-05 6.866377382e-20 4.058285413e-07)
(-5.601466908e-05 6.865773885e-20 -4.362537606e-06)
(-5.088798662e-05 6.865012842e-20 -9.793320578e-06)
(-4.389773784e-05 6.861233068e-20 -1.599959976e-05)
(-3.476858717e-05 6.860912477e-20 -2.312262022e-05)
(-2.317406965e-05 6.867618538e-20 -3.134060901e-05)
(-8.723584466e-06 6.86430788e-20 -4.088099551e-05)
(9.054595363e-06 6.864368471e-20 -5.203761608e-05)
(3.073570988e-05 6.864016946e-20 -6.51953887e-05)
(5.7028285e-05 6.864000769e-20 -8.086622463e-05)
(8.881385935e-05 6.864414366e-20 -9.974230567e-05)
(0.0001272000634 6.8643233e-20 -0.0001227772092)
(0.0001735911571 6.863716423e-20 -0.0001513121552)
(0.0002297797054 6.863954236e-20 -0.0001872779185)
(0.0002980588845 6.863663949e-20 -0.0002335270745)
(0.0003813386352 6.863883147e-20 -0.0002943972542)
(0.0004831960228 6.931060111e-20 -0.0003766945615)
(0.0006076286212 5.966642296e-20 -0.0004914564906)
(0.0007577983958 -2.647791982e-18 -0.0006571593948)
(0.0009316583285 4.420413505e-20 -0.0009054714969)
(0.001108568777 7.265812718e-20 -0.001290630841)
(0.001212482635 6.844601192e-20 -0.001899400274)
(0.001010782086 6.887105996e-20 -0.002802323373)
(0.0003925762267 6.95704939e-20 0.01024637594)
(-6.164140801e-06 6.802767367e-20 3.772131392e-05)
(-1.053904889e-05 5.813363322e-20 3.753735741e-05)
(-1.645283336e-05 -2.661915495e-18 3.712673051e-05)
(-2.248187888e-05 6.325436042e-20 3.649668229e-05)
(-2.841566556e-05 6.854172542e-20 3.564261103e-05)
(-3.415654523e-05 6.864755001e-20 3.455621613e-05)
(-3.963109613e-05 6.938868589e-20 3.322618385e-05)
(-4.47716211e-05 5.741632844e-20 3.163813441e-05)
(-4.951010559e-05 -2.662133858e-18 2.977435066e-05)
(-5.377539815e-05 7.415550737e-20 2.761336536e-05)
(-5.749138789e-05 2.810148512e-18 2.512940966e-05)
(-6.057548074e-05 2.802862394e-18 2.229168824e-05)
(-6.293707876e-05 7.429364244e-20 1.906345416e-05)
(-6.447590845e-05 6.865747815e-20 1.540083401e-05)
(-6.508009195e-05 6.865926287e-20 1.125133191e-05)
(-6.462387695e-05 6.866012667e-20 6.551880914e-06)
(-6.296491608e-05 6.866154188e-20 1.226318461e-06)
(-5.994094333e-05 6.865564173e-20 -4.817887967e-06)
(-5.536568364e-05 6.865067381e-20 -1.169395481e-05)
(-4.902379491e-05 6.864880922e-20 -1.954148992e-05)
(-4.066457738e-05 6.864741859e-20 -2.853420327e-05)
(-2.99940929e-05 6.864453018e-20 -3.889032238e-05)
(-1.666527022e-05 6.864408931e-20 -5.088690756e-05)
(-2.654561174e-07 6.863822883e-20 -6.487978615e-05)
(1.969917075e-05 6.864235604e-20 -8.133177832e-05)
(4.382292846e-05 6.863965927e-20 -0.0001008532258)
(7.282416636e-05 6.86400491e-20 -0.0001242610624)
(0.0001075725393 6.863792239e-20 -0.0001526667775)
(0.0001491174488 6.863870057e-20 -0.0001876097073)
(0.0001987096234 6.863863753e-20 -0.0002312629969)
(0.0002577941708 6.863898578e-20 -0.0002867578017)
(0.0003279209281 6.864322751e-20 -0.000358701749)
(0.0004104399706 6.94001564e-20 -0.000454014738)
(0.0005056649885 5.849133024e-20 -0.0005832672814)
(0.0006107603343 -2.652856387e-18 -0.000762731525)
(0.000714698892 4.933843095e-20 -0.001017104222)
(0.0007870912759 7.132021443e-20 -0.001381422301)
(0.0007569004286 6.868309847e-20 -0.001895172715)
(0.0004672783915 6.860965882e-20 -0.002505859662)
(0.000116188662 6.827055612e-20 0.01115634196)
(-6.314257582e-06 6.811764126e-20 4.653577636e-05)
(-1.079752928e-05 5.812710588e-20 4.631277964e-05)
(-1.686123809e-05 -2.661922778e-18 4.58159202e-05)
(-2.30500601e-05 6.323150981e-20 4.505386691e-05)
(-2.915138325e-05 6.864402782e-20 4.402106492e-05)
(-3.506839454e-05 6.862604105e-20 4.27075601e-05)
(-4.072933445e-05 6.939583258e-20 4.109981012e-05)
(-4.606861567e-05 5.737680545e-20 3.918062331e-05)
(-5.102071663e-05 -2.662003994e-18 3.692884638e-05)
(-5.55173951e-05 7.425220579e-20 3.431888414e-05)
(-5.948595322e-05 2.810336693e-18 3.132005362e-05)
(-6.284783454e-05 2.802837439e-18 2.789574562e-05)
(-6.55172614e-05 7.423635944e-20 2.400235554e-05)
(-6.739977064e-05 6.866736828e-20 1.958793535e-05)
(-6.839056442e-05 6.86600749e-20 1.45904651e-05)
(-6.837260962e-05 6.866138467e-20 8.935627155e-06)
(-6.721439682e-05 6.865633239e-20 2.533938879e-06)
(-6.47672644e-05 6.864478775e-20 -4.722954749e-06)
(-6.086219198e-05 6.865092222e-20 -1.296713729e-05)
(-5.530595522e-05 6.865043257e-20 -2.236080771e-05)
(-4.787651849e-05 6.864727461e-20 -3.310482052e-05)
(-3.831751599e-05 6.864814654e-20 -4.545013878e-05)
(-2.633172295e-05 6.863901419e-20 -5.971337557e-05)
(-1.157347679e-05 6.863926783e-20 -7.62981898e-05)
(6.359809379e-06 6.86345729e-20 -9.572507009e-05)
(2.793637091e-05 6.863740645e-20 -0.0001186733289)
(5.369751722e-05 6.864000041e-20 -0.0001460410566)
(8.426029216e-05 6.864409675e-20 -0.0001790318767)
(0.0001203077116 6.863593099e-20 -0.0002192819866)
(0.0001625504595 6.863918575e-20 -0.0002690480675)
(0.0002116264743 6.86352704e-20 -0.0003314867188)
(0.0002678685817 6.864659174e-20 -0.0004110683717)
(0.0003307967594 6.952809305e-20 -0.0005141761182)
(0.0003980472545 5.710529548e-20 -0.0006499175906)
(0.0004631924473 -2.652117842e-18 -0.0008310392274)
(0.0005115485099 5.401799283e-20 -0.001074337273)
(0.0005130055923 7.022844429e-20 -0.001398508878)
(0.0004129385898 6.865134491e-20 -0.00181379299)
(0.0001115708308 6.859343123e-20 -0.002203166974)
(-5.026246284e-05 6.808511363e-20 0.01177562041)
(-6.49245746e-06 6.803957099e-20 5.558215067e-05)
(-1.110423228e-05 5.804088011e-20 5.532169039e-05)
(-1.734570601e-05 -2.661940762e-18 5.474174671e-05)
(-2.372394006e-05 6.317723587e-20 5.38524887e-05)
(-3.002381569e-05 6.864890925e-20 5.264751678e-05)
(-3.614947472e-05 6.86589922e-20 5.111535337e-05)
(-4.203108812e-05 6.942097853e-20 4.924039611e-05)
(-4.760551896e-05 5.731945564e-20 4.700286395e-05)
(-5.281013544e-05 -2.66202041e-18 4.437845134e-05)
(-5.758006331e-05 7.423772207e-20 4.133779537e-05)
(-6.184654544e-05 2.810331505e-18 3.784575331e-05)
(-6.553567211e-05 2.802941906e-18 3.38604729e-05)
(-6.856719255e-05 7.42491125e-20 2.933221753e-05)
(-7.085328264e-05 6.865561036e-20 2.420187929e-05)
(-7.229720388e-05 6.866038013e-20 1.839908193e-05)
(-7.279180153e-05 6.866117997e-20 1.183975664e-05)
(-7.221778614e-05 6.865787142e-20 4.423037071e-06)
(-7.044175553e-05 6.86456982e-20 -3.972735264e-06)
(-6.731393026e-05 6.864698656e-20 -1.349520892e-05)
(-6.266558503e-05 6.86478482e-20 -2.432480216e-05)
(-5.630619197e-05 6.865160757e-20 -3.668366182e-05)
(-4.802032179e-05 6.863948192e-20 -5.084757844e-05)
(-3.756449335e-05 6.86419056e-20 -6.716189623e-05)
(-2.466440019e-05 6.8639283e-20 -8.606308688e-05)
(-9.013258054e-06 6.863833674e-20 -0.0001081082785)
(9.727075361e-06 6.863534252e-20 -0.0001340158379)
(3.19191292e-05 6.864079508e-20 -0.0001647218614)
(5.79314602e-05 6.864397255e-20 -0.0002014591812)
(8.809836508e-05 6.863620821e-20 -0.0002458680929)
(0.0001226378551 6.863941558e-20 -0.0003001512482)
(0.0001614911613 6.86391558e-20 -0.0003672874037)
(0.0002040163148 6.864667001e-20 -0.0004513159748)
(0.0002484149646 6.970626279e-20 -0.0005576847701)
(0.0002906882791 5.552547942e-20 -0.0006935871309)
(0.0003228199818 -2.653740796e-18 -0.0008680285585)
(0.0003298857494 5.788555687e-20 -0.001090909588)
(0.0002863121307 6.940662827e-20 -0.001369469775)
(0.0001535563559 6.863511904e-20 -0.001698809759)
(-0.0001278477506 6.859714721e-20 -0.001928287482)
(-0.0001539198124 6.79270572e-20 0.01222116449)
(-6.697583568e-06 6.803822499e-20 6.489928855e-05)
(-1.145721966e-05 5.806367226e-20 6.460307619e-05)
(-1.790319791e-05 -2.662001653e-18 6.394366338e-05)
(-2.44992697e-05 6.320649261e-20 6.29327405e-05)
(-3.102740364e-05 6.864941604e-20 6.156316508e-05)
(-3.739280045e-05 6.864803393e-20 5.982207819e-05)
(-4.352779895e-05 6.942836836e-20 5.769200864e-05)
(-4.937201325e-05 5.727009059e-20 5.515083455e-05)
(-5.486605077e-05 -2.662019857e-18 5.217141657e-05)
(-5.994880351e-05 7.433698495e-20 4.872102339e-05)
(-6.455590756e-05 2.8102831e-18 4.476055535e-05)
(-6.861861237e-05 2.802832364e-18 4.024355026e-05)
(-7.206277866e-05 7.4252534e-20 3.511493503e-05)
(-7.480789256e-05 6.865647293e-20 2.930944624e-05)
(-7.676604689e-05 6.866187567e-20 2.274962669e-05)
(-7.784085299e-05 6.865808914e-20 1.534328514e-05)
(-7.792626399e-05 6.865946427e-20 6.980262122e-06)
(-7.690531483e-05 6.843787911e-20 -2.471707499e-06)
(-7.464880796e-05 6.864138463e-20 -1.317233173e-05)
(-7.101401768e-05 6.86508015e-20 -2.531564795e-05)
(-6.584355046e-05 6.865290956e-20 -3.913900583e-05)
(-5.896457907e-05 6.864206075e-20 -5.493489715e-05)
(-5.018887938e-05 6.864153026e-20 -7.306645095e-05)
(-3.931444013e-05 6.863882523e-20 -9.398804981e-05)
(-2.612993638e-05 6.86398169e-20 -0.0001182730033)
(-1.042426799e-05 6.863431246e-20 -0.0001466504815)
(7.994898438e-06 6.863849575e-20 -0.0001800552028)
(2.926680086e-05 6.863827398e-20 -0.000219694036)
(5.341621697e-05 6.863401651e-20 -0.0002671344379)
(8.024537406e-05 6.863770584e-20 -0.0003244190475)
(0.00010914583 6.863183548e-20 -0.0003942077046)
(0.0001387759915 6.864487084e-20 -0.0004799357552)
(0.0001665203642 6.993445799e-20 -0.0005859454421)
(0.0001876170015 5.373544314e-20 -0.0007174716006)
(0.0001938469542 -2.652332417e-18 -0.0008802000972)
(0.0001718390519 6.077012312e-20 -0.001078811301)
(0.0001016410146 6.885813785e-20 -0.001313488789)
(-4.244856417e-05 6.861092058e-20 -0.001572811193)
(-0.0002937071135 6.861959249e-20 -0.001690068742)
(-0.0002213941424 6.826813525e-20 0.01255726963)
(-6.9283599e-06 6.803147434e-20 7.452432262e-05)
(-1.185430818e-05 5.808077568e-20 7.419424133e-05)
(-1.853026366e-05 -2.661989474e-18 7.345940384e-05)
(-2.537122185e-05 6.325569128e-20 7.233302796e-05)
(-3.215583699e-05 6.855489211e-20 7.080732968e-05)
(-3.879045001e-05 6.864745715e-20 6.886822131e-05)
(-4.520977223e-05 6.942731989e-20 6.649657014e-05)
(-5.13564265e-05 5.722125413e-20 6.366818269e-05)
(-5.717455654e-05 -2.662169797e-18 6.035342813e-05)
(-6.260715591e-05 7.440119875e-20 5.651663548e-05)
(-6.759462449e-05 2.810390582e-18 5.211528477e-05)
(-7.207378071e-05 2.802727479e-18 4.709897888e-05)
(-7.597705169e-05 7.423796939e-20 4.140815268e-05)
(-7.923173854e-05 6.865413345e-20 3.497244931e-05)
(-8.175932054e-05 6.865906749e-20 2.770867224e-05)
(-8.34747822e-05 6.865731894e-20 1.951820874e-05)
(-8.428597607e-05 6.865077582e-20 1.02837712e-05)
(-8.409306665e-05 6.864348636e-20 -1.347417691e-07)
(-8.278813473e-05 6.864525943e-20 -1.190553092e-05)
(-8.025508749e-05 6.864354199e-20 -2.523162204e-05)
(-7.637011411e-05 6.865312184e-20 -4.035952234e-05)
(-7.10030498e-05 6.863871915e-20 -5.759047117e-05)
(-6.402024008e-05 6.864725995e-20 -7.729487048e-05)
(-5.528989652e-05 6.864184924e-20 -9.993104741e-05)
(-4.469157547e-05 6.863845273e-20 -0.0001260697865)
(-3.213232313e-05 6.864000021e-20 -0.0001564260584)
(-1.757363501e-05 6.863694411e-20 -0.0001918998099)
(-1.076009351e-06 6.863687636e-20 -0.0002336276702)
(1.712808303e-05 6.863489942e-20 -0.0002830467487)
(3.651588786e-05 6.86272662e-20 -0.0003419683643)
(5.608485118e-05 6.863472389e-20 -0.0004126534298)
(7.405457268e-05 6.866041872e-20 -0.0004978647373)
(8.741335427e-05 7.02182369e-20 -0.0006008384281)
(9.126841243e-05 5.17266763e-20 -0.0007250521)
(7.801687175e-05 -2.652591512e-18 -0.0008735543375)
(3.654624884e-05 6.25564989e-20 -0.001047461541)
(-4.784633879e-05 6.864420187e-20 -0.001243148133)
(-0.0001915290424 6.860692591e-20 -0.001447357576)
(-0.0004120963235 6.862325013e-20 -0.001486428236)
(-0.0002675474084 6.811862441e-20 0.0128205991)
(-7.183383186e-06 6.809264641e-20 8.449249499e-05)
(-1.229308441e-05 5.80518467e-20 8.413059648e-05)
(-1.922308138e-05 -2.661984355e-18 8.332476754e-05)
(-2.633444853e-05 6.324278049e-20 8.208975258e-05)
(-3.340212896e-05 6.8520203e-20 8.04172299e-05)
(-4.033366115e-05 6.864536711e-20 7.829204359e-05)
(-4.706629674e-05 6.943742178e-20 7.569361739e-05)
(-5.354588184e-05 5.715637728e-20 7.259596947e-05)
(-5.972034076e-05 -2.662176424e-18 6.896733354e-05)
(-6.553703471e-05 7.447527768e-20 6.476954478e-05)
(-7.094141417e-05 2.810456542e-18 5.995722165e-05)
(-7.587617168e-05 2.802606519e-18 5.447672891e-05)
(-8.028062244e-05 7.421900303e-20 4.826488059e-05)
(-8.409021711e-05 6.865208054e-20 4.12473138e-05)
(-8.723616052e-05 6.865842394e-20 3.333645786e-05)
(-8.964514024e-05 6.865265348e-20 2.442899542e-05)
(-9.123920494e-05 6.865277873e-20 1.440267479e-05)
(-9.193587272e-05 6.864395339e-20 3.112303588e-06)
(-9.164858371e-05 6.863747373e-20 -9.615313282e-06)
(-9.028769906e-05 6.863944159e-20 -2.398771158e-05)
(-8.776236384e-05 6.864061965e-20 -4.025480157e-05)
(-8.398370799e-05 6.863817505e-20 -5.871912583e-05)
(-7.887006555e-05 6.864034001e-20 -7.974874471e-05)
(-7.23553003e-05 6.861588619e-20 -0.0001037934976)
(-6.440202981e-05 6.863577402e-20 -0.0001314055505)
(-5.502231496e-05 6.863166678e-20 -0.00016326498)
(-4.430978383e-05 6.863089046e-20 -0.0002002107507)
(-3.248929659e-05 6.863226987e-20 -0.0002432770355)
(-1.99932183e-05 6.862610917e-20 -0.0002937329846)
(-7.577255885e-06 6.863120245e-20 -0.0003531197579)
(3.506534412e-06 6.863192004e-20 -0.0004232708035)
(1.125881995e-05 6.86614793e-20 -0.0005062856762)
(1.258704793e-05 7.056637563e-20 -0.0006043998462)
(2.871178194e-06 4.937962155e-20 -0.000719647256)
(-2.448022891e-05 -2.650925227e-18 -0.0008531496712)
(-7.824379257e-05 6.335784342e-20 -0.001003813923)
(-0.0001688185555 6.85252429e-20 -0.001166331114)
(-0.0003061765921 6.864969328e-20 -0.001327884444)
(-0.0004988868451 6.847886269e-20 -0.001311978752)
(-0.0003003836023 6.557616239e-20 0.01303326036)
(-7.461132165e-06 6.823337923e-20 9.483698254e-05)
(-1.277092706e-05 5.816844786e-20 9.444547287e-05)
(-1.997749763e-05 -2.661995802e-18 9.357342978e-05)
(-2.738313995e-05 6.315346521e-20 9.223712008e-05)
(-3.4758695e-05 6.859660105e-20 9.042778982e-05)
(-4.201293087e-05 6.85332155e-20 8.812937952e-05)
(-4.908577249e-05 6.933174149e-20 8.532009366e-05)
(-5.592645846e-05 5.693763278e-20 8.197244995e-05)
(-6.248688235e-05 -2.66201271e-18 7.805290868e-05)
(-6.871897253e-05 7.43896838e-20 7.352126476e-05)
(-7.4573432e-05 2.810357345e-18 6.832984032e-05)
(-7.999902657e-05 2.80241614e-18 6.242246539e-05)
(-8.494214917e-05 7.39333026e-20 5.573320459e-05)
(-8.934656906e-05 6.840509686e-20 4.818477331e-05)
(-9.315334687e-05 6.840372872e-20 3.968657404e-05)
(-9.630093809e-05 6.838721929e-20 3.01322628e-05)
(-9.872554764e-05 6.837918733e-20 1.939672186e-05)
(-0.0001003618343 6.83703759e-20 7.332298759e-06)
(-0.0001011441169 6.836305425e-20 -6.235880288e-06)
(-0.0001010083079 6.836582159e-20 -2.151569091e-05)
(-9.989495472e-05 6.836852456e-20 -3.875517845e-05)
(-9.775393135e-05 6.837201186e-20 -5.8251524e-05)
(-9.455146505e-05 6.84156827e-20 -8.036206475e-05)
(-9.028061426e-05 6.842260957e-20 -0.0001055176581)
(-8.497694305e-05 6.836697034e-20 -0.0001342388324)
(-7.874180119e-05 6.842741068e-20 -0.0001671548947)
(-7.177664658e-05 6.845396684e-20 -0.000205025159)
(-6.44334069e-05 6.846142984e-20 -0.0002487608167)
(-5.728777211e-05 6.848598279e-20 -0.0002994435049)
(-5.124408525e-05 6.850595932e-20 -0.0003583323429)
(-4.768156885e-05 6.852357691e-20 -0.0004268432261)
(-4.864948627e-05 6.854184762e-20 -0.0005064717298)
(-5.710811267e-05 7.086531549e-20 -0.0005986106426)
(-7.718332229e-05 4.674030932e-20 -0.0007041865788)
(-0.0001143386868 -2.649434241e-18 -0.000823015404)
(-0.0001752568493 6.344216384e-20 -0.0009527835216)
(-0.0002670519919 6.778647323e-20 -0.001087753775)
(-0.0003954822334 6.762496326e-20 -0.001216497253)
(-0.0005640377287 6.699775657e-20 -0.001161304117)
(-0.0003244963302 6.720312326e-20 0.01320933568)
(-7.759980279e-06 6.811536546e-20 0.0001055887393)
(-1.328503284e-05 5.801244602e-20 0.0001051699594)
(-2.078907027e-05 -2.662018808e-18 0.0001042367779)
(-2.851108419e-05 6.328028491e-20 0.0001028069757)
(-3.621743222e-05 6.851371477e-20 0.0001008714705)
(-4.381811973e-05 6.865169432e-20 9.841346593e-05)
(-5.125584125e-05 6.946664749e-20 9.541017106e-05)
(-5.848335475e-05 5.701049266e-20 9.18328899e-05)
(-6.545665761e-05 -2.662185015e-18 8.764666993e-05)
(-7.21323755e-05 7.465205895e-20 8.280971647e-05)
(-7.846658261e-05 2.810602888e-18 7.727261501e-05)
(-8.441421562e-05 2.802597708e-18 7.097735138e-05)
(-8.992880951e-05 7.417105917e-20 6.38560924e-05)
(-9.496246488e-05 6.865030729e-20 5.582968162e-05)
(-9.946603348e-05 6.865187139e-20 4.680578774e-05)
(-0.0001033895608 6.864675092e-20 3.667663488e-05)
(-0.0001066830596 6.864337259e-20 2.531621106e-05)
(-0.0001092977288 6.863797164e-20 1.257684792e-05)
(-0.0001111877967 6.863755065e-20 -1.714971639e-06)
(-0.0001123132188 6.863846035e-20 -1.776371796e-05)
(-0.000112643648 6.863489866e-20 -3.581093966e-05)
(-0.000112164225 6.863885406e-20 -5.61427628e-05)
(-0.0001108838687 6.863406346e-20 -7.909885263e-05)
(-0.0001088471151 6.864036013e-20 -0.0001050827337)
(-0.000106151031 6.862662281e-20 -0.0001345735156)
(-0.0001029693513 6.86272983e-20 -0.0001681386668)
(-9.958657859e-05 6.863455832e-20 -0.0002064463318)
(-9.644573425e-05 6.862978438e-20 -0.0002502746241)
(-9.421436403e-05 6.862499145e-20 -0.0003005129747)
(-9.387363078e-05 6.864554309e-20 -0.0003581467384)
(-9.683394487e-05 6.866808885e-20 -0.0004242094577)
(-0.0001050754992 6.870497468e-20 -0.0004996782855)
(-0.0001212991766 7.14220099e-20 -0.000585275737)
(-0.0001490465852 4.462939186e-20 -0.0006811289905)
(-0.0001926995043 -2.647536837e-18 -0.0007862370682)
(-0.0002572013455 6.425900078e-20 -0.0008977303108)
(-0.0003472661814 6.865621192e-20 -0.001010115908)
(-0.000465964758 6.852881188e-20 -0.001113611205)
(-0.0006139838388 6.872506929e-20 -0.001029821477)
(-0.0003426763822 7.065774179e-20 0.01335819726)
(-8.078209551e-06 6.802939898e-20 0.0001167763585)
(-1.383244095e-05 5.799220082e-20 0.0001163327624)
(-2.165310942e-05 -2.662034991e-18 0.000115343771)
(-2.971172826e-05 6.329056634e-20 0.0001138286615)
(-3.776980195e-05 6.850114614e-20 0.0001117781275)
(-4.573855759e-05 6.865377153e-20 0.0001091747979)
(-5.356352283e-05 6.948152971e-20 0.000105995106)
(-6.12010576e-05 5.693485996e-20 0.0001022094217)
(-6.86113446e-05 -2.662193503e-18 9.778173181e-05)
(-7.575577283e-05 7.476116745e-20 9.266909044e-05)
(-8.25958263e-05 2.810679762e-18 8.682088713e-05)
(-8.909261512e-05 2.802380838e-18 8.017792645e-05)
(-9.520676469e-05 7.416038434e-20 7.267128798e-05)
(-0.0001008985761 6.865818441e-20 6.422093241e-05)
(-0.0001061284524 6.865638528e-20 5.473400294e-05)
(-0.0001108576342 6.864867821e-20 4.410276501e-05)
(-0.0001150493272 6.864756587e-20 3.220211264e-05)
(-0.0001186703433 6.864910552e-20 1.888655873e-05)
(-0.0001216934456 6.864453045e-20 3.986621718e-06)
(-0.0001241006485 6.864282289e-20 -1.269551888e-05)
(-0.0001258878494 6.865028298e-20 -3.139102648e-05)
(-0.0001270713307 6.864325163e-20 -5.237034961e-05)
(-0.0001276968094 6.864273059e-20 -7.595004519e-05)
(-0.0001278518971 6.866473797e-20 -0.0001025001355)
(-0.000127683233 6.863450598e-20 -0.0001324516621)
(-0.0001274200686 6.864314769e-20 -0.000166303661)
(-0.0001274063321 6.864771559e-20 -0.000204627836)
(-0.0001281435528 6.86532166e-20 -0.0002480676685)
(-0.0001303471653 6.866089692e-20 -0.0002973268886)
(-0.0001350179519 6.867387451e-20 -0.000353138916)
(-0.0001435276657 6.868728576e-20 -0.0004162040501)
(-0.0001577117028 6.872998725e-20 -0.000487075275)
(-0.0001799494964 7.173805655e-20 -0.0005659679184)
(-0.000213192206 4.273186383e-20 -0.0006524661374)
(-0.0002608647056 -2.646340121e-18 -0.0007451104584)
(-0.0003265342178 6.477541426e-20 -0.0008408914611)
(-0.0004132141932 6.860712023e-20 -0.0009348737597)
(-0.0005223079148 6.869516006e-20 -0.001018850209)
(-0.0006529936847 6.86404577e-20 -0.0009138573791)
(-0.0003566930288 6.591326304e-20 0.01348630611)
(-8.414026128e-06 6.801796823e-20 0.0001284259542)
(-1.44100606e-05 5.811206789e-20 0.0001279600881)
(-2.25647221e-05 -2.662013726e-18 0.0001269208201)
(-3.097824026e-05 6.327006439e-20 0.000125328899)
(-3.940691191e-05 6.861540958e-20 0.0001231748934)
(-4.776315055e-05 6.879456087e-20 0.0001204410135)
(-5.599534707e-05 6.966623585e-20 0.0001171031268)
(-6.406350564e-05 5.703010891e-20 0.0001131309377)
(-7.193202485e-05 -2.662002968e-18 0.0001084877084)
(-7.956706168e-05 7.508977866e-20 0.0001031297589)
(-8.693547799e-05 2.811041681e-18 9.700579331e-05)
(-9.400447165e-05 2.802687426e-18 9.005605532e-05)
(-0.0001007416012 7.437612677e-20 8.221128938e-05)
(-0.0001071151136 6.896067406e-20 7.339148204e-05)
(-0.0001130945718 6.896547698e-20 6.350434786e-05)
(-0.0001186518316 6.897803327e-20 5.244351711e-05)
(-0.0001237624525 6.898156123e-20 4.008638131e-05)
(-0.0001284076673 6.865741726e-20 2.629154354e-05)
(-0.000132577095 6.900647298e-20 1.089582572e-05)
(-0.0001362724744 6.900904476e-20 -6.289244791e-06)
(-0.0001395127021 6.902564607e-20 -2.548135355e-05)
(-0.0001423407044 6.902596477e-20 -4.693173088e-05)
(-0.0001448327707 6.899340752e-20 -7.09298994e-05)
(-0.0001471110039 6.899695377e-20 -9.780829104e-05)
(-0.0001493598905 6.908194324e-20 -0.0001279460668)
(-0.0001518482849 6.905634278e-20 -0.0001617711372)
(-0.0001549582103 6.907144195e-20 -0.0001997586006)
(-0.0001592217173 6.91020331e-20 -0.0002424222285)
(-0.0001653666088 6.912428921e-20 -0.000290294148)
(-0.0001743705399 6.915334931e-20 -0.0003438854697)
(-0.0001875198645 6.918366902e-20 -0.0004036176175)
(-0.0002064636042 6.923891926e-20 -0.0004697107676)
(-0.0002332426386 7.267746181e-20 -0.0005420146501)
(-0.0002702595344 4.174475057e-20 -0.0006197704259)
(-0.0003201347724 -2.646159862e-18 -0.0007013077647)
(-0.0003853819921 6.620021489e-20 -0.0007837189096)
(-0.0004678386716 6.981460652e-20 -0.0008627318076)
(-0.0005679029486 7.030912064e-20 -0.0009315149941)
(-0.0006839711721 7.037496245e-20 -0.0008105214544)
(-0.0003677082146 6.899266442e-20 0.01359825024)
(-8.765575453e-06 6.802783805e-20 0.0001405610636)
(-1.50146974e-05 5.795618567e-20 0.0001400755434)
(-2.351885347e-05 -2.662055594e-18 0.0001389916909)
(-3.230356896e-05 6.329955364e-20 0.0001373316939)
(-4.111959627e-05 6.849135268e-20 0.0001350860865)
(-4.988048203e-05 6.865461243e-20 0.0001322368072)
(-5.853748166e-05 6.951192568e-20 0.0001287593548)
(-6.705424673e-05 5.677340214e-20 0.0001246230199)
(-7.539937514e-05 -2.662202456e-18 0.0001197906556)
(-8.354374192e-05 7.497599721e-20 0.0001142182353)
(-9.14594891e-05 2.810757912e-18 0.0001078542478)
(-9.911974193e-05 2.802315884e-18 0.0001006389428)