/*--------------------------------*- C++ -*----------------------------------*\
| =========                 |                                                 |
| \\      /  F ield         | OpenFOAM: The Open Source CFD Toolbox           |
|  \\    /   O peration     | Version:  v1912                                 |
|   \\  /    A nd           | Website:  www.openfoam.com                      |
|    \\/     M anipulation  |                                                 |
\*---------------------------------------------------------------------------*/
FoamFile
{
    version     2.0;
    format      ascii;
    class       volScalarField;
    location    "0.3";
    object      alphat.gas;
}
// * * * * * * * * * * * * * * * * * * * * * * * * * * * * * * * * * * * * * //

dimensions      [1 -1 -1 0 0 0 0];


internalField   nonuniform List<scalar> 
4800
(
2.193842936e-08
4.08178348e-08
5.402698329e-08
6.482791741e-08
7.421329896e-08
8.264373759e-08
9.038024726e-08
9.758939258e-08
1.043867287e-07
1.108578353e-07
1.170697139e-07
1.230775278e-07
1.289289111e-07
1.346669198e-07
1.403322216e-07
1.459648471e-07
1.516057224e-07
1.572981237e-07
1.630891772e-07
1.690315074e-07
1.751851526e-07
1.816198812e-07
1.884180856e-07
1.95678494e-07
2.03521039e-07
2.120933606e-07
2.215796855e-07
2.322131862e-07
2.442935607e-07
2.582126628e-07
2.744929e-07
2.938465837e-07
3.172714083e-07
3.462027731e-07
3.828959569e-07
4.299049942e-07
4.963429409e-07
6.046326161e-07
4.823837729e-07
1.230275736e-06
3.740905225e-08
7.114973734e-08
9.495646575e-08
1.144515229e-07
1.313766369e-07
1.465422263e-07
1.604053324e-07
1.732539684e-07
1.852836037e-07
1.96634174e-07
2.074099913e-07
2.176913275e-07
2.275415678e-07
2.37011853e-07
2.461442067e-07
2.549737214e-07
2.635301269e-07
2.718389513e-07
2.79922399e-07
2.878000367e-07
2.954893447e-07
3.030061784e-07
3.103651746e-07
3.17580135e-07
3.24664411e-07
3.31631342e-07
3.384947833e-07
3.452698131e-07
3.519737495e-07
3.586277057e-07
3.652591233e-07
3.719060905e-07
3.786261243e-07
3.854885799e-07
3.930432093e-07
3.961192149e-07
4.443380472e-07
4.949837378e-07
1.020683307e-06
2.643064883e-06
3.64159243e-08
6.918488666e-08
9.229750532e-08
1.112236758e-07
1.276553755e-07
1.423792876e-07
1.5583882e-07
1.683132582e-07
1.799920542e-07
1.910107619e-07
2.014703623e-07
2.114485016e-07
2.210064309e-07
2.301935044e-07
2.390502116e-07
2.476102901e-07
2.559022426e-07
2.639504542e-07
2.717760355e-07
2.793974774e-07
2.868311725e-07
2.940918476e-07
3.011929399e-07
3.081469421e-07
3.149657558e-07
3.216610768e-07
3.282448735e-07
3.347300278e-07
3.411312731e-07
3.474666514e-07
3.537598995e-07
3.600445273e-07
3.66371742e-07
3.72810293e-07
3.796883847e-07
3.854691776e-07
4.004295292e-07
3.044055094e-07
1.099435131e-06
3.209298353e-06
3.646862178e-08
6.928866287e-08
9.243725992e-08
1.113927565e-07
1.278498062e-07
1.425963955e-07
1.560766867e-07
1.685704528e-07
1.802674875e-07
1.913035982e-07
2.017799639e-07
2.117743922e-07
2.213482715e-07
2.30551077e-07
2.394234088e-07
2.479991101e-07
2.563067874e-07
2.643709311e-07
2.722127631e-07
2.798508936e-07
2.873018477e-07
2.945805011e-07
3.017004607e-07
3.086744176e-07
3.155145028e-07
3.22232681e-07
3.288412302e-07
3.353533784e-07
3.417842143e-07
3.48152063e-07
3.544806616e-07
3.608027e-07
3.671662785e-07
3.736325096e-07
3.804989983e-07
3.865557223e-07
3.881269292e-07
4.651778278e-07
9.299743727e-07
3.612966667e-06
3.645787902e-08
6.926820658e-08
9.240977539e-08
1.113595176e-07
1.278115279e-07
1.425535515e-07
1.560296106e-07
1.685193876e-07
1.802126123e-07
1.912450444e-07
2.017178251e-07
2.117087304e-07
2.212791214e-07
2.304784481e-07
2.393472866e-07
2.479194561e-07
2.562235375e-07
2.642839936e-07
2.72122014e-07
2.79756171e-07
2.872029427e-07
2.94477145e-07
3.015923069e-07
3.08561014e-07
3.153952517e-07
3.221067764e-07
3.287075593e-07
3.352103606e-07
3.416295282e-07
3.479821664e-07
3.54289911e-07
3.605816888e-07
3.668981305e-07
3.732973217e-07
3.798612635e-07
3.87186552e-07
3.896082245e-07
3.328860562e-07
1.68318229e-06
3.941740502e-06
3.645119388e-08
6.925574328e-08
9.239303814e-08
1.113392871e-07
1.277882223e-07
1.425274476e-07
1.560009032e-07
1.684882185e-07
1.801790861e-07
1.912092377e-07
2.016797924e-07
2.116685076e-07
2.212367283e-07
2.304338896e-07
2.393005529e-07
2.478705224e-07
2.561723629e-07
2.642305187e-07
2.720661573e-07
2.796978238e-07
2.871419611e-07
2.944133391e-07
3.015254236e-07
3.084907125e-07
3.153210657e-07
3.220280558e-07
3.286233768e-07
3.351193608e-07
3.415296731e-07
3.478702988e-07
3.541609848e-07
3.604273896e-07
3.667042727e-07
3.730425797e-07
3.794274258e-07
3.879524912e-07
3.745012761e-07
3.549393866e-07
1.383765915e-06
4.26188385e-06
3.644429035e-08
6.924285726e-08
9.237569476e-08
1.113183052e-07
1.277640355e-07
1.42500343e-07
1.559710826e-07
1.684558284e-07
1.80144234e-07
1.911720018e-07
2.016402274e-07
2.116266488e-07
2.211925932e-07
2.303874798e-07
2.39251854e-07
2.47819503e-07
2.561189735e-07
2.641746887e-07
2.720077907e-07
2.79636793e-07
2.87078098e-07
2.943464215e-07
3.014551566e-07
3.084167002e-07
3.152427689e-07
3.21944728e-07
3.285339647e-07
3.350223465e-07
3.414228194e-07
3.477502305e-07
3.540224923e-07
3.602622647e-07
3.664994566e-07
3.727740635e-07
3.791326893e-07
3.866731455e-07
3.712623305e-07
4.379768631e-07
1.757189258e-06
4.616832482e-06
3.643744227e-08
6.923008876e-08
9.235847601e-08
1.112974593e-07
1.277399918e-07
1.424733861e-07
1.559414127e-07
1.684235906e-07
1.801095346e-07
1.911349178e-07
2.016008125e-07
2.115849368e-07
2.211486006e-07
2.303412061e-07
2.392032825e-07
2.477685997e-07
2.560656851e-07
2.641189394e-07
2.71949478e-07
2.795757803e-07
2.870142048e-07
2.942794096e-07
3.013847094e-07
3.08342393e-07
3.151640251e-07
3.218607534e-07
3.28443648e-07
3.349241053e-07
3.413143612e-07
3.476281748e-07
3.538817747e-07
3.600951998e-07
3.662943212e-07
3.725111488e-07
3.788708317e-07
3.836871325e-07
4.095916814e-07
8.14480582e-07
2.214787636e-06
4.942072319e-06
3.643063589e-08
6.921741031e-08
9.234134595e-08
1.112767064e-07
1.277160426e-07
1.424465235e-07
1.559118355e-07
1.683914431e-07
1.800749221e-07
1.910979165e-07
2.015614753e-07
2.115432966e-07
2.211046726e-07
2.302949887e-07
2.39154757e-07
2.477177297e-07
2.560124141e-07
2.640631877e-07
2.718911373e-07
2.795147068e-07
2.869502085e-07
2.942122396e-07
3.013140326e-07
3.082677638e-07
3.150848409e-07
3.217761898e-07
3.28352562e-07
3.348248909e-07
3.412047297e-07
3.475048227e-07
3.537398789e-07
3.599276601e-07
3.660906118e-07
3.722573931e-07
3.78479166e-07
3.851498935e-07
3.782997841e-07
4.274428521e-07
1.777380804e-06
5.251841161e-06
3.642387563e-08
6.920483039e-08
9.232431742e-08
1.112560631e-07
1.276922079e-07
1.424197785e-07
1.55882378e-07
1.683594161e-07
1.800404305e-07
1.910610358e-07
2.015222577e-07
2.115017744e-07
2.210608602e-07
2.302488835e-07
2.391063393e-07
2.476669614e-07
2.559592369e-07
2.64007519e-07
2.718328654e-07
2.794536829e-07
2.868862363e-07
2.941450601e-07
3.012433025e-07
3.081930253e-07
3.150054782e-07
3.216913662e-07
3.282611286e-07
3.347252529e-07
3.410946503e-07
3.473811323e-07
3.535980479e-07
3.597611713e-07
3.658900195e-07
3.720097915e-07
3.781437602e-07
3.849679581e-07
3.817253702e-07
2.357009787e-07
2.275604982e-06
5.556915315e-06
3.641716476e-08
6.919235511e-08
9.230740021e-08
1.112355424e-07
1.276685037e-07
1.423931701e-07
1.558530619e-07
1.683275348e-07
1.80006088e-07
1.910243073e-07
2.014831949e-07
2.114604094e-07
2.210172069e-07
2.302029389e-07
2.390580832e-07
2.476163551e-07
2.559062209e-07
2.639520095e-07
2.717747486e-07
2.793928077e-07
2.868224032e-07
2.940780061e-07
3.011726801e-07
3.081183723e-07
3.149261764e-07
3.216065813e-07
3.281697261e-07
3.346256764e-07
3.409847466e-07
3.472578998e-07
3.534572712e-07
3.595968897e-07
3.656937258e-07
3.717696672e-07
3.778247876e-07
3.850475025e-07
3.720568063e-07
2.792632021e-07
2.7016981e-06
5.848782658e-06
3.641050658e-08
6.917999068e-08
9.22906043e-08
1.112151573e-07
1.276449462e-07
1.423667177e-07
1.5582391e-07
1.682958249e-07
1.799719238e-07
1.909877636e-07
2.014443234e-07
2.114192418e-07
2.209737574e-07
2.301572046e-07
2.390100439e-07
2.475659722e-07
2.558534349e-07
2.638967364e-07
2.717168746e-07
2.793321813e-07
2.867588246e-07
2.940112122e-07
3.01102324e-07
3.080439948e-07
3.148471657e-07
3.215221182e-07
3.280787061e-07
3.345266005e-07
3.408755675e-07
3.471358031e-07
3.533183623e-07
3.594357395e-07
3.655026824e-07
3.71538163e-07
3.775186976e-07
3.853562604e-07
3.534211914e-07
4.216529761e-07
3.073737643e-06
6.12178932e-06
3.640390437e-08
6.916774318e-08
9.227393959e-08
1.111949211e-07
1.276215517e-07
1.423404408e-07
1.557949446e-07
1.682643122e-07
1.79937967e-07
1.909514374e-07
2.014056794e-07
2.113783123e-07
2.209305568e-07
2.301117304e-07
2.389622766e-07
2.475158739e-07
2.558009471e-07
2.638417763e-07
2.716593296e-07
2.792719017e-07
2.866956128e-07
2.939448087e-07
3.010323869e-07
3.079700733e-07
3.147686626e-07
3.214382386e-07
3.279883873e-07
3.344284147e-07
3.40767587e-07
3.47015411e-07
3.53181985e-07
3.592784588e-07
3.653176562e-07
3.713157633e-07
3.772425084e-07
3.852164689e-07
3.436316012e-07
5.039605892e-07
3.403221036e-06
6.376404443e-06
3.639736137e-08
6.915561856e-08
9.225741593e-08
1.111748468e-07
1.275983366e-07
1.423143586e-07
1.557661886e-07
1.682330226e-07
1.799042469e-07
1.909153615e-07
2.013672996e-07
2.113376612e-07
2.208876496e-07
2.300665657e-07
2.389148359e-07
2.474661209e-07
2.55748825e-07
2.637872044e-07
2.716021982e-07
2.792120644e-07
2.866328767e-07
2.938789203e-07
3.009630136e-07
3.078967774e-07
3.146908671e-07
3.213551806e-07
3.278990543e-07
3.343314592e-07
3.406612086e-07
3.468971949e-07
3.530486744e-07
3.591256287e-07
3.651392294e-07
3.711032013e-07
3.769860384e-07
3.84965361e-07
3.351454065e-07
5.954592491e-07
3.701957297e-06
6.613337313e-06
3.639088081e-08
6.914362266e-08
9.224104303e-08
1.111549474e-07
1.275753169e-07
1.422884905e-07
1.557376642e-07
1.682019818e-07
1.798707924e-07
1.908795682e-07
2.013292201e-07
2.112973287e-07
2.208450802e-07
2.300217592e-07
2.388677757e-07
2.474167726e-07
2.556971343e-07
2.637330939e-07
2.715455619e-07
2.791527609e-07
2.865707197e-07
2.93813665e-07
3.008943393e-07
3.078242635e-07
3.146139614e-07
3.212731572e-07
3.27810957e-07
3.342360257e-07
3.405567698e-07
3.467815377e-07
3.529188514e-07
3.5897769e-07
3.649678275e-07
3.709008334e-07
3.767482118e-07
3.846546672e-07
3.250650918e-07
7.259393784e-07
3.975397679e-06
6.833982504e-06
3.638446582e-08
6.913176114e-08
9.222483041e-08
1.111352356e-07
1.275525085e-07
1.422628556e-07
1.557093937e-07
1.68171215e-07
1.798376322e-07
1.908440897e-07
2.012914763e-07
2.112573539e-07
2.208028918e-07
2.299773587e-07
2.388211484e-07
2.473678867e-07
2.556459388e-07
2.636795151e-07
2.714894987e-07
2.790940783e-07
2.865092394e-07
2.937491528e-07
3.008264888e-07
3.077526741e-07
3.145381093e-07
3.211923569e-07
3.277243114e-07
3.341423607e-07
3.404545475e-07
3.46668742e-07
3.527928336e-07
3.588349546e-07
3.648037242e-07
3.707089383e-07
3.765265234e-07
3.842731404e-07
3.174831251e-07
8.485825844e-07
4.224411137e-06
7.040019093e-06
3.637811951e-08
6.912003948e-08
9.22087874e-08
1.111157239e-07
1.27529927e-07
1.422374723e-07
1.556813987e-07
1.681407471e-07
1.798047943e-07
1.908089573e-07
2.012541031e-07
2.112177754e-07
2.207611269e-07
2.299334107e-07
2.38775005e-07
2.473195191e-07
2.555952995e-07
2.636265351e-07
2.714340827e-07
2.790360985e-07
2.864485266e-07
2.936854851e-07
3.007595761e-07
3.076821378e-07
3.144634558e-07
3.211129434e-07
3.276393018e-07
3.340506685e-07
3.40354763e-07
3.465590382e-07
3.526708441e-07
3.586976116e-07
3.646470378e-07
3.705275426e-07
3.763200994e-07
3.838561426e-07
3.119643302e-07
9.693058685e-07
4.44977733e-06
7.239937232e-06
3.637184494e-08
6.910846293e-08
9.219292306e-08
1.110964245e-07
1.275075875e-07
1.42212359e-07
1.556537004e-07
1.681106025e-07
1.79772306e-07
1.907742015e-07
2.012171345e-07
2.111786305e-07
2.207198263e-07
2.298899599e-07
2.387293944e-07
2.47271723e-07
2.555452747e-07
2.635742175e-07
2.713793834e-07
2.789788976e-07
2.863886654e-07
2.936227549e-07
3.006937042e-07
3.07612769e-07
3.14390128e-07
3.210350574e-07
3.275560822e-07
3.339611146e-07
3.402575876e-07
3.464525919e-07
3.525530211e-07
3.585657356e-07
3.64497723e-07
3.703564213e-07
3.761279667e-07
3.834263963e-07
3.086184987e-07
1.087612903e-06
4.653704724e-06
7.433713823e-06
3.636564506e-08
6.909703653e-08
9.217724614e-08
1.110773491e-07
1.274855048e-07
1.421875332e-07
1.556263195e-07
1.680808045e-07
1.79740194e-07
1.907398521e-07
2.011806032e-07
2.111399553e-07
2.206790296e-07
2.298470494e-07
2.386843633e-07
2.472245494e-07
2.554959195e-07
2.635226222e-07
2.713254659e-07
2.789225466e-07
2.863297328e-07
2.935610464e-07
3.006289653e-07
3.075446683e-07
3.143182358e-07
3.209588179e-07
3.274747794e-07
3.338738302e-07
3.401631495e-07
3.463495136e-07
3.524394313e-07
3.584393021e-07
3.643555831e-07
3.701950709e-07
3.759488461e-07
3.830008892e-07
3.073758077e-07
1.204535309e-06
4.840430189e-06
7.611156821e-06
3.635952277e-08
6.908576505e-08
9.216176509e-08
1.11058509e-07
1.274636931e-07
1.42163012e-07
1.555992757e-07
1.680513759e-07
1.797084837e-07
1.907059373e-07
2.011445406e-07
2.111017843e-07
2.206387745e-07
2.298047203e-07
2.386399564e-07
2.471780463e-07
2.554472859e-07
2.634718051e-07
2.712723904e-07
2.788671104e-07
2.862717994e-07
2.935004356e-07
3.005654412e-07
3.07477924e-07
3.142478736e-07
3.208843246e-07
3.273954963e-07
3.337889167e-07
3.400715402e-07
3.462498687e-07
3.523300846e-07
3.583182113e-07
3.642203071e-07
3.700427702e-07
3.757811547e-07
3.825877421e-07
3.082878888e-07
1.320865121e-06
5.01166166e-06
7.765217109e-06
3.635348089e-08
6.907465293e-08
9.214648796e-08
1.110399151e-07
1.274421658e-07
1.421388116e-07
1.55572588e-07
1.680223383e-07
1.796771996e-07
1.906724846e-07
2.011089769e-07
2.110641506e-07
2.20599097e-07
2.297630116e-07
2.385962157e-07
2.471322591e-07
2.553994225e-07
2.634218186e-07
2.71220213e-07
2.78812649e-07
2.862149288e-07
2.934409904e-07
3.005032044e-07
3.074126128e-07
3.141791216e-07
3.208116599e-07
3.273183148e-07
3.337064507e-07
3.399828213e-07
3.461536881e-07
3.522249511e-07
3.582023178e-07
3.64091527e-07
3.698987044e-07
3.756231684e-07
3.821926369e-07
3.113863231e-07
1.437349142e-06
5.170068837e-06
7.907351987e-06
3.634752215e-08
6.906370434e-08
9.213142238e-08
1.110215776e-07
1.27420936e-07
1.421149475e-07
1.555462745e-07
1.679937125e-07
1.796463651e-07
1.906395199e-07
2.010739408e-07
2.110270856e-07
2.205600312e-07
2.297219602e-07
2.385531811e-07
2.470872305e-07
2.553523751e-07
2.633727112e-07
2.711689853e-07
2.78759217e-07
2.861591791e-07
2.93382772e-07
3.004423188e-07
3.073488008e-07
3.141120475e-07
3.207408914e-07
3.272432995e-07
3.336264882e-07
3.398970319e-07
3.46060978e-07
3.521239776e-07
3.5809146e-07
3.639688786e-07
3.697621058e-07
3.754733393e-07
3.818203871e-07
3.166856548e-07
1.553543665e-06
5.315634866e-06
8.060824125e-06
3.634164923e-08
6.9052923e-08
9.211657555e-08
1.110035063e-07
1.274000157e-07
1.420914343e-07
1.555203523e-07
1.67965518e-07
1.796160021e-07
1.906070676e-07
2.010394593e-07
2.109906188e-07
2.205216094e-07
2.296816008e-07
2.385108898e-07
2.470430004e-07
2.553061861e-07
2.633245281e-07
2.711187551e-07
2.787068649e-07
2.86104603e-07
2.933258353e-07
3.003828411e-07
3.072865461e-07
3.140467092e-07
3.206720751e-07
3.27170501e-07
3.335490698e-07
3.398141941e-07
3.459717287e-07
3.520271011e-07
3.579854846e-07
3.638520528e-07
3.696323757e-07
3.753306309e-07
3.814694887e-07
3.248500172e-07
1.664849907e-06
5.450493845e-06
8.256148697e-06
3.63358647e-08
6.904231224e-08
9.210195417e-08
1.109857101e-07
1.273794163e-07
1.420682857e-07
1.554948373e-07
1.679377731e-07
1.795861313e-07
1.90575151e-07
2.010055579e-07
2.109547782e-07
2.204838617e-07
2.296419663e-07
2.38469377e-07
2.469996063e-07
2.552608954e-07
2.632773115e-07
2.710695668e-07
2.786556391e-07
2.860512487e-07
2.932702299e-07
3.003248218e-07
3.072258991e-07
3.139831562e-07
3.20605257e-07
3.270999593e-07
3.334742242e-07
3.39734318e-07
3.458859215e-07
3.519342579e-07
3.578842609e-07
3.637408197e-07
3.695091408e-07
3.751947921e-07
3.811171889e-07
3.370145925e-07
1.817741261e-06
5.570298478e-06
8.362216966e-06
3.633017113e-08
6.903187491e-08
9.208756442e-08
1.109681974e-07
1.273591483e-07
1.420455144e-07
1.554697445e-07
1.679104949e-07
1.795567721e-07
1.905437915e-07
2.009722604e-07
2.109195898e-07
2.204468166e-07
2.296030872e-07
2.384286756e-07
2.469570835e-07
2.552165404e-07
2.632311009e-07
2.710214618e-07
2.786055825e-07
2.859991606e-07
2.932160013e-07
3.00268307e-07
3.071669053e-07
3.139214319e-07
3.205404769e-07
3.27031707e-07
3.334019726e-07
3.396574073e-07
3.458035339e-07
3.518453891e-07
3.577876829e-07
3.636350247e-07
3.693922287e-07
3.750654228e-07
3.808288217e-07
3.515435861e-07
1.970543035e-06
5.672411202e-06
8.357948739e-06
3.632457107e-08
6.902161326e-08
9.207341195e-08
1.109509758e-07
1.273392213e-07
1.42023132e-07
1.554450874e-07
1.678836991e-07
1.795279423e-07
1.905130091e-07
2.009395889e-07
2.108850779e-07
2.204105006e-07
2.295649922e-07
2.383888165e-07
2.46915465e-07
2.551731564e-07
2.631859333e-07
2.709744789e-07
2.785567359e-07
2.859483807e-07
2.931631924e-07
3.002133396e-07
3.071096073e-07
3.138615769e-07
3.204777711e-07
3.269657734e-07
3.333323331e-07
3.395834631e-07
3.457245435e-07
3.51760442e-07
3.576956655e-07
3.635345629e-07
3.692815765e-07
3.749430564e-07
3.806064546e-07
3.679399262e-07
2.117350033e-06
5.761863552e-06
8.443805394e-06
3.631906721e-08
6.901152883e-08
9.205950183e-08
1.10934052e-07
1.273196439e-07
1.42001149e-07
1.554208785e-07
1.678574001e-07
1.794996582e-07
1.904828222e-07
2.009075638e-07
2.10851265e-07
2.203749383e-07
2.295277083e-07
2.383498289e-07
2.46874782e-07
2.551307765e-07
2.631418442e-07
2.709286556e-07
2.78509138e-07
2.858989494e-07
2.931118445e-07
3.001599615e-07
3.070540463e-07
3.138036307e-07
3.204171754e-07
3.269021874e-07
3.332653238e-07
3.39512488e-07
3.456489313e-07
3.516793711e-07
3.576081365e-07
3.634393509e-07
3.691771455e-07
3.748281161e-07
3.804477661e-07
3.820383252e-07
1.899708552e-06
5.839578302e-06
8.492270647e-06
3.631366248e-08
6.900162233e-08
9.204583858e-08
1.10917432e-07
1.273004238e-07
1.419795747e-07
1.553971289e-07
1.678316107e-07
1.794719345e-07
1.904532473e-07
2.008762037e-07
2.108181718e-07
2.203401526e-07
2.294912604e-07
2.383117399e-07
2.46835064e-07
2.550894326e-07
2.630988674e-07
2.708840276e-07
2.78462827e-07
2.858509063e-07
2.930619988e-07
3.001082148e-07
3.070002647e-07
3.137476346e-07
3.203587281e-07
3.268409818e-07
3.332009679e-07
3.394444907e-07
3.455766856e-07
3.516021395e-07
3.57525032e-07
3.633493055e-07
3.690788648e-07
3.747207727e-07
3.803157786e-07
3.802043235e-07
7.843205598e-07
5.90801516e-06
8.576368008e-06
3.630836033e-08
6.899189326e-08
9.20324261e-08
1.109011208e-07
1.272815674e-07
1.419584172e-07
1.553738483e-07
1.678063424e-07
1.794447843e-07
1.904242995e-07
2.008455255e-07
2.107858173e-07
2.203061645e-07
2.294556717e-07
2.38274575e-07
2.467963389e-07
2.550491549e-07
2.630570356e-07
2.708406302e-07
2.784178402e-07
2.858042913e-07
2.930136973e-07
3.000581434e-07
3.069483075e-07
3.136936338e-07
3.203024731e-07
3.267821967e-07
3.331392985e-07
3.393794916e-07
3.455078082e-07
3.515287231e-07
3.574462963e-07
3.632643377e-07
3.689866162e-07
3.746209163e-07
3.801868897e-07
3.788550211e-07
7.630362959e-07
5.967791975e-06
8.623545664e-06
3.630316517e-08
6.898233958e-08
9.201926774e-08
1.108851228e-07
1.272630803e-07
1.419376832e-07
1.553510447e-07
1.677816047e-07
1.79418219e-07
1.903959916e-07
2.008155441e-07
2.107542183e-07
2.20272993e-07
2.294209638e-07
2.382383582e-07
2.467586331e-07
2.550099724e-07
2.630163807e-07
2.707984981e-07
2.783742155e-07
2.857591452e-07
2.929669838e-07
3.00009794e-07
3.068982238e-07
3.136416793e-07
3.20248462e-07
3.267258824e-07
3.330803617e-07
3.393175287e-07
3.454423211e-07
3.514591189e-07
3.573718902e-07
3.63184359e-07
3.689002467e-07
3.745283182e-07
3.800610627e-07
3.775833314e-07
7.732606667e-07
6.020018252e-06
8.68163082e-06
3.629808304e-08
6.897295689e-08
9.200636619e-08
1.108694408e-07
1.272449664e-07
1.41917378e-07
1.553287248e-07
1.677574056e-07
1.793922478e-07
1.903683349e-07
2.007862724e-07
2.107233897e-07
2.202406553e-07
2.293871558e-07
2.382031112e-07
2.467219713e-07
2.549719128e-07
2.629769335e-07
2.707576656e-07
2.783319908e-07
2.857155095e-07
2.929219035e-07
2.99963215e-07
3.068500654e-07
3.135918256e-07
3.20196752e-07
3.266720983e-07
3.330242172e-07
3.392586578e-07
3.453802702e-07
3.513933527e-07
3.573018027e-07
3.631092987e-07
3.688195943e-07
3.744427043e-07
3.799370847e-07
3.762991709e-07
7.923854359e-07
6.066551757e-06
8.720141629e-06
3.629312258e-08
6.896373796e-08
9.199372356e-08
1.108540769e-07
1.272272286e-07
1.418975053e-07
1.553068932e-07
1.677337509e-07
1.79366878e-07
1.90341338e-07
2.00757721e-07
2.106933441e-07
2.202091661e-07
2.293542652e-07
2.381688544e-07
2.466863767e-07
2.549350031e-07
2.62938725e-07
2.707181682e-07
2.782912066e-07
2.856734308e-07
2.928785092e-07
2.999184663e-07
3.068038989e-07
3.135441454e-07
3.201474193e-07
3.266209209e-07
3.329709396e-07
3.392029499e-07
3.453217212e-07
3.513314765e-07
3.572360573e-07
3.630391232e-07
3.687445243e-07
3.743638121e-07
3.798130156e-07
3.749303011e-07
8.142841871e-07
6.107278955e-06
8.757932722e-06
3.628829668e-08
6.895467191e-08
9.198134187e-08
1.108390323e-07
1.272098683e-07
1.418780672e-07
1.552855529e-07
1.677106446e-07
1.79342115e-07
1.903150077e-07
2.007298982e-07
2.106640918e-07
2.201785381e-07
2.293223076e-07
2.381356063e-07
2.466518719e-07
2.548992699e-07
2.62901787e-07
2.706800436e-07
2.782519074e-07
2.856329612e-07
2.928368623e-07
2.998756196e-07
3.067598083e-07
3.134987361e-07
3.201005756e-07
3.265724745e-07
3.329206589e-07
3.391505313e-07
3.452667854e-07
3.512735789e-07
3.571747104e-07
3.62973838e-07
3.686749581e-07
3.742914654e-07
3.796863113e-07
3.733911514e-07
8.370832459e-07
6.145162508e-06
8.789549396e-06
3.628360177e-08
6.894576429e-08
9.19692205e-08
1.108243069e-07
1.271928858e-07
1.418590643e-07
1.552647051e-07
1.676880887e-07
1.793179615e-07
1.902893481e-07
2.007028096e-07
2.106356404e-07
2.201487811e-07
2.292912951e-07
2.381033826e-07
2.466184763e-07
2.548647375e-07
2.628661491e-07
2.706433278e-07
2.782141368e-07
2.85594153e-07
2.927970253e-07
2.998347498e-07
3.067178826e-07
3.134557042e-07
3.200563483e-07
3.265269108e-07
3.328735527e-07
3.391016007e-07
3.452156678e-07
3.512198471e-07
3.571179056e-07
3.629135192e-07
3.68610886e-07
3.742256214e-07
3.795537335e-07
3.716165574e-07
8.593832103e-07
6.177932119e-06
8.815087982e-06
3.627900333e-08
6.893703852e-08
9.195735219e-08
1.108098975e-07
1.271762785e-07
1.418404944e-07
1.55244348e-07
1.676660819e-07
1.79294417e-07
1.902643595e-07
2.006764569e-07
2.106079932e-07
2.201199006e-07
2.29261236e-07
2.380721946e-07
2.465862051e-07
2.548314259e-07
2.628318375e-07
2.706080544e-07
2.781779374e-07
2.8555706e-07
2.927590652e-07
2.997959396e-07
3.066782236e-07
3.134151728e-07
3.200148844e-07
3.264844033e-07
3.32829824e-07
3.390563958e-07
3.451686426e-07
3.511705785e-07
3.570659327e-07
3.628584049e-07
3.685524664e-07
3.741664527e-07
3.794115785e-07
3.695194043e-07
8.810034103e-07
6.208858864e-06
8.836527389e-06
3.627449943e-08
6.89284916e-08
9.194573304e-08
1.107957998e-07
1.271600422e-07
1.418223533e-07
1.552244774e-07
1.676446203e-07
1.792714782e-07
1.902400396e-07
2.00650839e-07
2.105811505e-07
2.200918988e-07
2.292321353e-07
2.380420509e-07
2.465550716e-07
2.547993539e-07
2.627988777e-07
2.705742572e-07
2.781433536e-07
2.855217395e-07
2.927230557e-07
2.997592832e-07
3.066409502e-07
3.133772911e-07
3.199763686e-07
3.264451767e-07
3.327897396e-07
3.390152234e-07
3.451260551e-07
3.511261564e-07
3.570192032e-07
3.628089084e-07
3.685000965e-07
3.741144794e-07
3.792552548e-07
3.6702174e-07
9.017603369e-07
6.236004447e-06
8.85448507e-06
3.627008856e-08
6.892012035e-08
9.193435895e-08
1.10782009e-07
1.271441714e-07
1.418046351e-07
1.552050873e-07
1.676236981e-07
1.792491395e-07
1.902163834e-07
2.006259518e-07
2.105551098e-07
2.200647755e-07
2.292039954e-07
2.380129576e-07
2.465250862e-07
2.54768538e-07
2.627672939e-07
2.705419704e-07
2.781104316e-07
2.854882532e-07
2.926890781e-07
2.997248861e-07
3.066061985e-07
3.133422332e-07
3.199410214e-07
3.264095066e-07
3.327536385e-07
3.389784897e-07
3.45088377e-07
3.510871055e-07
3.569782744e-07
3.62765597e-07
3.684543609e-07
3.740705186e-07
3.790780734e-07
3.639855924e-07
9.214130839e-07
6.261301217e-06
8.868934342e-06
3.626576864e-08
6.891192068e-08
9.192322476e-08
1.107685189e-07
1.271286589e-07
1.417873321e-07
1.551861695e-07
1.676033067e-07
1.792273925e-07
1.901933827e-07
2.00601788e-07
2.105298651e-07
2.200385264e-07
2.291768149e-07
2.379849168e-07
2.464962564e-07
2.547389921e-07
2.627371084e-07
2.705112269e-07
2.780792183e-07
2.854566662e-07
2.926572206e-07
2.996928665e-07
3.065741248e-07
3.13310203e-07
3.19909106e-07
3.263777287e-07
3.327219426e-07
3.38946713e-07
3.450562278e-07
3.510541417e-07
3.569439308e-07
3.627292724e-07
3.684160604e-07
3.740355836e-07
3.788708144e-07
3.602463968e-07
9.408084238e-07
6.284253331e-06
8.880312826e-06
3.626153712e-08
6.890388757e-08
9.191232408e-08
1.107553218e-07
1.27113496e-07
1.417704343e-07
1.551677132e-07
1.675834347e-07
1.792062254e-07
1.901710259e-07
2.005783363e-07
2.105054061e-07
2.200131431e-07
2.291505878e-07
2.379579263e-07
2.464685848e-07
2.547107256e-07
2.627083395e-07
2.704820571e-07
2.7804976e-07
2.854270453e-07
2.926275773e-07
2.996633539e-07
3.065449047e-07
3.132814356e-07
3.198809334e-07
3.26350249e-07
3.326951742e-07
3.389205509e-07
3.450304112e-07
3.510282171e-07
3.569172512e-07
3.627010766e-07
3.683863299e-07
3.740110334e-07
3.786196885e-07
3.555410914e-07
9.607987539e-07
6.306510309e-06
8.88943203e-06
3.625739101e-08
6.889601515e-08
9.190164924e-08
1.107424084e-07
1.270986718e-07
1.417539295e-07
1.55149705e-07
1.675640678e-07
1.791856232e-07
1.901492977e-07
2.005555815e-07
2.104817182e-07
2.199886121e-07
2.29125303e-07
2.379319782e-07
2.464420683e-07
2.546837421e-07
2.626810002e-07
2.704544864e-07
2.780220993e-07
2.853994564e-07
2.926002448e-07
2.996364864e-07
3.065187312e-07
3.132561972e-07
3.198568656e-07
3.263275527e-07
3.326739725e-07
3.389008307e-07
3.45011967e-07
3.510105953e-07
3.568997078e-07
3.626826239e-07
3.683668127e-07
3.739979013e-07
3.783127888e-07
3.495862113e-07
9.817244559e-07
6.327114918e-06
8.89682787e-06
3.625332687e-08
6.888829665e-08
9.189119136e-08
1.107297677e-07
1.270841735e-07
1.417378034e-07
1.55132129e-07
1.675451886e-07
1.791655675e-07
1.901281785e-07
2.005335038e-07
2.104587816e-07
2.199649146e-07
2.291009432e-07
2.379070584e-07
2.464166971e-07
2.546580383e-07
2.626550965e-07
2.70428534e-07
2.779962734e-07
2.853739615e-07
2.925753197e-07
2.996124076e-07
3.064958127e-07
3.13234784e-07
3.19837317e-07
3.263102109e-07
3.326591117e-07
3.388885822e-07
3.450022312e-07
3.510029484e-07
3.568933128e-07
3.626762073e-07
3.68359978e-07
3.739981323e-07
3.77958653e-07
3.422231926e-07
1.003336008e-06
6.346339276e-06
8.902522549e-06
3.624934081e-08
6.888072448e-08
9.188094032e-08
1.107173873e-07
1.270699864e-07
1.417220389e-07
1.551149664e-07
1.675267766e-07
1.791460359e-07
1.90107645e-07
2.005120786e-07
2.104365714e-07
2.199420257e-07
2.290774847e-07
2.378831451e-07
2.463924535e-07
2.546336023e-07
2.626306252e-07
2.704042097e-07
2.779723107e-07
2.853506154e-07
2.92552894e-07
2.995912624e-07
3.064763683e-07
3.13217519e-07
3.19822755e-07
3.262988885e-07
3.326515204e-07
3.388850775e-07
3.450029061e-07
3.510074854e-07
3.569008203e-07
3.626850985e-07
3.683695209e-07
3.74015172e-07
3.775590029e-07
3.343894952e-07
1.025859751e-06
6.363727183e-06
8.906464033e-06
3.624542852e-08
6.887329021e-08
9.187088478e-08
1.10705253e-07
1.270560938e-07
1.41706617e-07
1.550981954e-07
1.675088078e-07
1.791270024e-07
1.90087669e-07
2.004912763e-07
2.104150569e-07
2.199199143e-07
2.290548963e-07
2.378602086e-07
2.463693102e-07
2.54610412e-07
2.626075722e-07
2.703815115e-07
2.779502272e-07
2.85329461e-07
2.925330502e-07
2.995731906e-07
3.064606213e-07
3.132047467e-07
3.198136975e-07
3.26294348e-07
3.326523005e-07
3.388918761e-07
3.450161506e-07
3.510271148e-07
3.569260066e-07
3.627139865e-07
3.68401024e-07
3.740547679e-07
3.771155975e-07
3.263905787e-07
1.048283208e-06
6.379452117e-06
8.908793353e-06
3.624158526e-08
6.886598461e-08
9.186101228e-08
1.106933494e-07
1.270424771e-07
1.416915162e-07
1.550817918e-07
1.67491255e-07
1.791084373e-07
1.900682184e-07
2.004710625e-07
2.103942014e-07
2.19898542e-07
2.290331391e-07
2.378382096e-07
2.463472295e-07
2.54588433e-07
2.625859096e-07
2.70360422e-07
2.779300227e-07
2.853105242e-07
2.925158538e-07
2.995583185e-07
3.0644879e-07
3.13196823e-07
3.198107046e-07
3.262974491e-07
3.326627427e-07
3.389108747e-07
3.450446903e-07
3.510656497e-07
3.569740411e-07
3.627696087e-07
3.684629379e-07
3.741262318e-07
3.766404506e-07
3.184660954e-07
1.068563287e-06
6.393199506e-06
8.909849034e-06
3.62378059e-08
6.885879768e-08
9.185130922e-08
1.106816594e-07
1.27029116e-07
1.416767127e-07
1.550657286e-07
1.67474088e-07
1.790903067e-07
1.900492562e-07
2.00451397e-07
2.103739621e-07
2.198778633e-07
2.290121652e-07
2.378170991e-07
2.463261621e-07
2.545676174e-07
2.625655935e-07
2.703409054e-07
2.779116752e-07
2.852938068e-07
2.925013456e-07
2.995467487e-07
3.064410745e-07
3.131941003e-07
3.198143646e-07
3.2630914e-07
3.326843354e-07
3.389443551e-07
3.450919407e-07
3.511280725e-07
3.570519805e-07
3.628616349e-07
3.685680871e-07
3.742450036e-07
3.761551066e-07
3.108834583e-07
1.084624457e-06
6.405009692e-06
8.909735378e-06
3.623408495e-08
6.885171878e-08
9.184176101e-08
1.106701645e-07
1.270159883e-07
1.416621806e-07
1.550499759e-07
1.67457273e-07
1.790725734e-07
1.900307411e-07
2.004322346e-07
2.103542897e-07
2.198578252e-07
2.289919178e-07
2.377968171e-07
2.463060455e-07
2.545479015e-07
2.625465613e-07
2.703229036e-07
2.778951368e-07
2.852792801e-07
2.924895314e-07
2.995385466e-07
3.064376393e-07
3.131969063e-07
3.1982527e-07
3.263304371e-07
3.327187606e-07
3.389950224e-07
3.451621409e-07
3.512208567e-07
3.571694333e-07
3.630039103e-07