/*--------------------------------*- C++ -*----------------------------------*\
| =========                 |                                                 |
| \\      /  F ield         | OpenFOAM: The Open Source CFD Toolbox           |
|  \\    /   O peration     | Version:  v1912                                 |
|   \\  /    A nd           | Website:  www.openfoam.com                      |
|    \\/     M anipulation  |                                                 |
\*---------------------------------------------------------------------------*/
FoamFile
{
    version     2.0;
    format      ascii;
    class       volScalarField;
    location    "0.3";
    object      alpha.gas_0;
}
// * * * * * * * * * * * * * * * * * * * * * * * * * * * * * * * * * * * * * //

dimensions      [0 0 0 0 0 0 0];


internalField   nonuniform List<scalar> 
4800
(
3.456558684e-226
2.073265953e-226
2.064583211e-226
1.103543121e-225
2.173717673e-221
4.449244775e-217
7.410130383e-213
1.030687084e-208
1.222255172e-204
1.252859388e-200
1.129250369e-196
9.044714583e-193
6.496614863e-189
4.220157103e-185
2.497791391e-181
1.355123657e-177
6.787651625e-174
3.141124438e-170
1.345133237e-166
5.364704583e-163
1.981931933e-159
6.825691307e-156
2.186670084e-152
1.587228152e-149
1.475689616e-148
1.625608061e-143
3.352102953e-144
2.705833076e-144
6.443467744e-105
3.584433809e-105
1.188609805e-118
1.775924777e-77
2.673992194e-76
2.695793639e-76
2.651724392e-61
1.75913737e-77
8.65540048e-49
1.615865437e-64
2.583521951e-05
0.01162294424
2.363492265e-222
1.407486429e-222
1.394889353e-222
1.844709802e-222
6.208880829e-220
1.288455416e-215
2.199753917e-211
3.135086167e-207
3.830006075e-203
4.061130631e-199
3.788387696e-195
3.145823106e-191
2.350882121e-187
1.591787516e-183
9.837005221e-180
5.578539352e-176
2.911411987e-172
1.401251522e-168
6.229314339e-165
2.561109807e-161
9.715129759e-158
3.420204499e-154
1.090213321e-150
2.094151687e-148
1.051260393e-154
2.665623269e-138
4.936275455e-139
1.025430289e-141
2.911459501e-123
4.014738232e-100
2.820224416e-119
1.239006701e-74
0
2.101041702e-60
1.092933279e-58
1.770384205e-77
1.107240793e-45
1.619943718e-64
0.0001863884675
0.01621137347
7.818022961e-219
4.632937914e-219
4.574167797e-219
5.944718384e-219
3.717941988e-218
6.099318432e-214
1.036554462e-209
1.469630637e-205
1.780415972e-201
1.869418236e-197
1.723788644e-193
1.411660206e-189
1.03762346e-185
6.892836312e-182
4.165242244e-178
2.299572747e-174
1.161630058e-170
5.367749132e-167
2.261907535e-163
8.649563621e-160
2.957723522e-156
8.943215526e-153
2.035245896e-149
1.460596547e-146
8.850531253e-156
9.48163501e-134
1.829282869e-134
1.269911514e-136
0
3.594420419e-95
0
3.442279356e-73
0
1.209955709e-56
4.238000846e-56
0
8.543824225e-44
7.901437194e-64
0.0004780431339
0.02146539587
1.677852938e-215
9.90921891e-216
9.754382498e-216
1.261880348e-215
1.725369033e-215
1.427481249e-212
2.423395342e-208
3.45644359e-204
4.198528635e-200
4.436485899e-196
4.114343855e-192
3.384301036e-188
2.492471411e-184
1.655015924e-180
9.954557251e-177
5.435562812e-173
2.692382799e-169
1.204592694e-165
4.816934431e-162
1.6931428e-158
4.998536415e-155
1.135894313e-151
1.622094712e-149
2.617479251e-144
5.84668449e-156
1.697528591e-130
2.50493947e-131
5.280963929e-133
0
1.343796974e-91
2.341835979e-110
6.053211185e-73
0
2.272290143e-54
7.660301292e-55
0
7.678264717e-43
4.990302275e-64
0.0008676296674
0.02629663062
2.634009281e-212
1.552272669e-212
1.524365313e-212
1.963643312e-212
2.558964772e-212
4.450412031e-211
6.877147985e-207
9.774280646e-203
1.180003338e-198
1.23649765e-194
1.13195225e-190
9.15855665e-187
6.61008262e-183
4.28451305e-179
2.505445007e-175
1.324499574e-171
6.324267542e-168
2.714170274e-164
1.036272196e-160
3.461036097e-157
9.642777452e-154
2.047436817e-150
4.220932989e-152
6.457676669e-140
9.1039983e-156
1.785378523e-127
3.227012903e-128
2.40001885e-129
1.068385923e-147
2.430973025e-89
1.458004129e-108
6.052597776e-73
6.117289114e-92
3.43758677e-53
6.008273548e-72
3.103634575e-46
1.033685948e-42
4.140372657e-66
0.001262435733
0.03068142476
3.231030991e-209
1.901933014e-209
1.863897795e-209
2.390558744e-209
3.085540583e-209
5.571607353e-209
1.171979679e-205
1.604532449e-201
1.866110168e-197
1.881196217e-193
1.654006788e-189
1.282457337e-185
8.849761201e-182
5.469537471e-178
3.040911532e-174
1.523938681e-170
6.878177808e-167
2.782826557e-163
9.993265846e-160
3.133806858e-156
8.190528657e-153
1.632130901e-149
4.155517677e-152
2.643134663e-137
2.621220672e-155
4.283450869e-126
4.764779804e-123
1.325897719e-124
0
1.19222098e-87
2.158057466e-106
5.91156652e-73
0
6.829602299e-53
9.620116463e-63
4.934116155e-45
1.0320534e-42
7.653399151e-64
0.00169230023
0.03486059324
3.229657905e-206
1.900324705e-206
1.85856225e-206
2.372317578e-206
3.033428282e-206
4.720448982e-206
1.253352862e-204
1.373872814e-200
1.394412741e-196
1.227587209e-192
9.430998892e-189
6.355622705e-185
3.786117334e-181
1.988448437e-177
9.173923738e-174
3.690160642e-170
1.275791798e-166
3.701046722e-163
8.667370629e-160
1.547342423e-156
1.94316934e-153
2.389089892e-150
9.65344294e-152
2.693172563e-136
2.194837156e-137
0
4.96297758e-118
1.013304905e-119
0
9.114604161e-85
0
4.456540006e-73
2.088966703e-92
6.830878068e-53
0
9.048684149e-45
9.82182148e-43
0
0.00209755368
0.03900133892
2.708427745e-203
1.5935459e-203
1.554939677e-203
1.973853102e-203
2.498861645e-203
3.827719074e-203
1.410233888e-202
7.290793745e-199
7.202660184e-195
6.154075498e-191
4.574496004e-187
2.973522255e-183
1.703278299e-179
8.573363123e-176
3.777050063e-172
1.444473282e-168
4.719838799e-165
1.281448102e-161
2.751180281e-158
4.240200954e-155
3.430433925e-152
4.153970328e-152
1.147563989e-151
9.155387356e-137
8.098992504e-133
0
4.886729217e-115
1.885274864e-116
1.844854699e-135
8.132113995e-83
8.115357148e-104
2.529741642e-72
0
6.833294653e-53
9.620116431e-63
8.721218471e-45
5.718481169e-43
0
0.002391232526
0.04331959686
1.946763345e-200
1.145284419e-200
1.114291606e-200
1.405339415e-200
1.760248848e-200
2.655765635e-200
5.492998368e-200
2.765070225e-197
2.651789628e-193
2.201348466e-189
1.585300709e-185
9.955878502e-182
5.495192155e-178
2.658475586e-174
1.122989245e-170
4.108847464e-167
1.282056061e-163
3.319635327e-160
6.797045462e-157
1.002165413e-153
7.629868244e-151
7.039542922e-152
5.666525089e-144
1.134489551e-148
4.330571442e-129
0
9.20977765e-114
8.413805268e-113
0
8.12343519e-82
1.31428883e-100
5.295232511e-72
0
5.387951771e-53
1.075532778e-72
5.167661248e-45
1.363160632e-43
0
0.002858964934
0.04787957039
1.219043485e-197
7.167218675e-198
6.946716022e-198
8.694241464e-198
1.076646131e-197
1.598752663e-197
3.06033142e-197
7.660634058e-196
6.600011719e-192
5.323484168e-188
3.714641643e-184
2.254316917e-180
1.199343615e-176
5.579304913e-173
2.261353914e-169
7.924508544e-166
2.365289873e-162
5.858064703e-159
1.150019055e-155
1.638857563e-152
1.171442065e-149
8.657178893e-152
8.36078101e-142
4.830924498e-148
6.480188302e-127
3.604734748e-128
0
6.921719303e-108
0
1.3824256e-81
7.44509659e-100
5.297390069e-72
4.994885877e-91
2.07306983e-53
9.62011643e-63
1.249242758e-45
9.098993264e-45
5.379115676e-63
0.003406829664
0.05258851685
6.73515068e-195
3.953568672e-195
3.812943711e-195
4.729513862e-195
5.786191441e-195
8.450068316e-195
1.560664623e-194
4.209737518e-194
1.004620829e-190
7.869972572e-187
5.322890092e-183
3.123356526e-179
1.603039906e-175
7.179814437e-172
2.797494221e-168
9.417032616e-165
2.701533001e-161
6.451069001e-158
1.231529316e-154
1.740766048e-151
1.15834774e-148
1.130565781e-151
6.088884281e-141
1.133425671e-148
4.816851715e-126
4.76120819e-127
0
5.042270427e-103
0
1.382735575e-81
1.449397394e-101
3.877886978e-72
0
2.599104791e-54
4.038801768e-72
8.730449988e-47
1.186225302e-46
1.770187048e-70
0.00394130742
0.05731578736
3.316219887e-192
1.940859164e-192
1.86007624e-192
2.283538317e-192
2.758229783e-192
3.958957455e-192
7.0739548e-192
1.378430213e-191
7.507790364e-190
5.508329216e-186
3.617518362e-182
2.05793281e-178
1.022966508e-174
4.436652158e-171
1.676006347e-167
5.490564394e-164
1.544972391e-160
3.674689039e-157
7.191076274e-154
1.094395552e-150
6.587682895e-148
2.972327779e-151
6.106185119e-141
4.830924498e-148
4.831228223e-126
7.650130843e-127
0
1.583616379e-98
1.719224272e-117
1.318904295e-81
7.828273018e-102
7.349876393e-73
5.793822652e-75
6.0608255e-56
9.620116471e-63
1.128990987e-48
2.663562247e-49
6.448345585e-73
0.004460308953
0.06190798143
1.466712897e-189
8.54396374e-190
8.125516531e-190
9.860356264e-190
1.175214897e-189
1.657145909e-189
2.867391169e-189
5.397289664e-189
1.136590657e-188
3.473586147e-186
2.363009898e-182
1.434249732e-178
7.797889182e-175
3.804568192e-171
1.671899584e-167
6.631111155e-164
2.356106852e-160
7.38573216e-157
1.975779931e-153
4.165630329e-150
2.067804983e-147
1.282442451e-150
6.065053973e-141
1.133425671e-148
4.804753884e-126
7.019081496e-127
1.779886328e-146
1.561944526e-95
0
7.639538038e-82
6.478612375e-102
1.735124165e-74
3.744762748e-64
2.249203171e-71
2.108021037e-53
1.816950748e-51
1.374395098e-52
6.709431297e-72
0.004967422996
0.06623581728
5.86358669e-187
3.393192763e-187
3.197850311e-187
3.83156728e-187
4.504315609e-187
6.238638193e-187
1.046460907e-186
1.91488513e-186
3.770372287e-186
2.402332282e-185
1.125151328e-181
6.917516986e-178
3.787256477e-174
1.848414981e-170
8.067459192e-167
3.153231405e-163
1.095435346e-159
3.33389586e-156
8.609787321e-153
1.747408292e-149
6.91930874e-147
9.27309128e-148
3.212476886e-141
4.830924498e-148
2.5641287e-126
3.563827156e-127
0
8.027517797e-94
7.452701761e-113
1.906212002e-82
2.276626875e-83
0
3.102024106e-64
0
1.591359557e-53
2.917755469e-54
3.873861915e-56
0
0.00546790891
0.07023180437
2.129209633e-184
1.221647539e-184
1.139526051e-184
1.346944593e-184
1.561518053e-184
2.124679021e-184
3.459313059e-184
6.158688553e-184
1.179485904e-183
2.415322068e-183
1.077341589e-181
5.582492838e-178
2.868964134e-174
1.365323352e-170
5.905793109e-167
2.286833725e-163
7.842024588e-160
2.356672796e-156
6.057072016e-153
1.268670175e-149
9.433208605e-147
1.245731448e-144
5.225437447e-142
1.133425671e-148
4.32269681e-127
5.949196771e-128
2.349260822e-147
3.594990164e-93
0
7.535141099e-83
1.685957591e-83
8.005793086e-103
8.570354948e-65
1.268610284e-83
3.081110916e-54
2.308456658e-55
8.270478609e-58
0
0.005961335654
0.07389932378
7.049422174e-182
4.002990005e-182
3.692231644e-182
4.303488965e-182
4.92035505e-182
6.580619599e-182
1.041577215e-181
1.806094768e-181
3.37014425e-181
6.680493598e-181
2.464694495e-180
3.20449306e-177
8.072520041e-174
1.743867339e-170
3.207888608e-167
5.54209999e-164
1.024783971e-160
2.371395198e-157
6.645817262e-154
2.010903309e-150
7.469647393e-147
9.525678699e-144
1.554783335e-143
2.414402811e-146
1.416042967e-128
1.910708502e-129
0
3.611450331e-93
0
7.209087431e-83
9.929147947e-84
0
4.664893315e-66
0
8.60482198e-56
5.820161895e-57
1.039014631e-59
0
0.006439968617
0.07729912478
2.134207374e-179
1.197737611e-179
1.091896181e-179
1.254988934e-179
1.415683467e-179
1.862900742e-179
2.87155141e-179
4.856119005e-179
8.840165503e-179
1.709410016e-178
3.786394352e-178
1.034138378e-175
2.54967491e-172
5.293455572e-169
8.04791146e-166
1.062871641e-162
1.076415903e-159
7.815895737e-157
3.716492532e-154
1.715115031e-151
4.294101192e-147
9.532299469e-144
8.19632826e-160
1.511162885e-128
2.90282781e-129
1.466529213e-129
0
3.168237634e-93
0
6.713265037e-83
1.875244198e-84
0
3.203319274e-68
4.189351114e-87
2.162469135e-58
1.75724426e-59
1.122450443e-62
0
0.006897314065
0.08051524743
5.921909516e-177
3.28213997e-177
2.957627798e-177
3.354438814e-177
3.736120801e-177
4.844134037e-177
7.286209219e-177
1.203389297e-176
2.139654899e-176
4.039558169e-176
8.004168324e-176
3.123757423e-174
8.291696029e-171
1.855737809e-167
2.014073948e-164
2.536399955e-161
2.41645312e-158
1.598063969e-155
6.084382464e-153
9.735074573e-151
4.611432544e-148
9.536052011e-144
7.49646277e-163
2.351908316e-124
1.755100593e-125
3.97398027e-127
0
1.290878871e-93
2.86550553e-113
4.178860984e-83
0
2.538280019e-72
1.201301285e-71
0
3.349620808e-62
3.667536476e-63
2.77373281e-82
1.120050754e-06
0.007334280686
0.0835933323
1.508903312e-174
8.260832747e-175
7.364809654e-175
8.253689459e-175
9.08641908e-175
1.162851681e-174
1.710151677e-174
2.761839276e-174
4.799576269e-174
8.84511694e-174
1.689462739e-173
1.218314745e-172
3.924682888e-169
1.037903531e-165
4.366399696e-163
5.247088074e-160
4.73020654e-157
2.88656336e-154
9.372735283e-152
1.038340539e-149
4.445235217e-148
7.04486184e-144
1.118646114e-162
1.049440266e-121
6.105716485e-123
8.38114699e-126
0
1.461355262e-94
3.237089641e-113
1.061565764e-83
1.295036426e-103
9.27705421e-73
1.071329906e-88
5.863927966e-67
6.448721374e-66
1.011333543e-66
0
3.27451958e-06
0.007764671431
0.08651091194
3.537079373e-172
1.915761724e-172
1.692778113e-172
1.878337047e-172
2.046565327e-172
2.589956546e-172
3.730529851e-172
5.894901507e-172
1.001099046e-171
1.798554549e-171
3.338207421e-171
1.070713653e-170
3.30794885e-167
9.317136462e-164
8.272318834e-162
9.30828408e-159
7.96610879e-156
4.495939747e-153
1.225861914e-150
8.164278528e-149
3.872237452e-147
2.098850978e-144
1.349510002e-163
2.254736094e-120
1.294246206e-121
3.515744054e-124
5.178422425e-120
2.801801777e-96
5.342283276e-116
6.49427495e-85
6.850484751e-103
5.108508475e-74
1.652364753e-79
1.599104173e-67
4.932639555e-67
7.381443693e-68
0
5.456736902e-06
0.008189999314
0.08919111269
7.645053628e-170
4.109474682e-170
3.608376181e-170
3.973921573e-170
4.290638856e-170
5.377210319e-170
7.593325912e-170
1.173639915e-169
1.94511666e-169
3.398378091e-169
6.117980341e-169
1.523015301e-168
3.424636047e-165
9.353002275e-162
1.51584224e-160
1.394505091e-157
1.136253189e-154
5.942981162e-152
1.333690898e-149
3.941960435e-148
2.247882005e-146
8.171827358e-146
1.028539836e-162
4.411351021e-120
3.551901103e-121
1.602440861e-126
5.959200226e-101
1.865558493e-99
1.786796005e-97
4.612257374e-87
3.375436406e-100
2.456386856e-76
1.072644926e-88
5.355616429e-69
2.535768522e-68
3.535124843e-69
0
7.718633285e-06
0.008620340224
0.09177838462
1.52839227e-167
8.193685908e-168
7.17219003e-168
7.856800268e-168
8.412541253e-168
1.044529353e-167
1.445771406e-167
2.182125376e-167
3.519987492e-167
5.959896127e-167
1.037060914e-166
2.265308418e-166
3.396195398e-163
8.901685973e-160
4.181342387e-159
1.725522767e-156
1.340818244e-153
6.509764528e-151
1.172610964e-148
4.596448161e-148
7.631963015e-143
1.125337835e-142
4.256478981e-162
4.408381556e-120
2.8981084e-121
0
2.382993974e-101
2.869790391e-104
3.269866709e-91
1.727209526e-107
6.787075438e-82
1.410174646e-80
8.49038432e-77
1.341249218e-71
3.054239819e-70
3.945111057e-71
3.912315048e-104
1.011846511e-05
0.009048761768
0.09433205233
2.839504552e-165
1.527592501e-165
1.336829332e-165
1.45807619e-165
1.54777882e-165
1.901635891e-165
2.575409845e-165
3.784202211e-165
5.918689203e-165
9.672151603e-165
1.620840534e-164
3.197755603e-164
3.03361116e-161
7.759521617e-158
2.388623302e-157
1.727931234e-155
1.266404168e-152
5.701582748e-150
7.946033742e-148
2.421900465e-148
2.987902603e-139
8.033854898e-140
1.38772568e-159
2.599648657e-120
8.362520118e-122
1.602440861e-126
1.468248566e-102
0
1.345207085e-91
1.588966003e-111
2.285988369e-82
2.241477128e-89
1.002577137e-75
1.846899704e-75
4.672503106e-73
5.542416328e-74
1.483149239e-104
1.262729167e-05
0.009494678034
0.09789675563
4.935037831e-163
2.679966505e-163
2.347448718e-163
2.545628565e-163
2.674062391e-163
3.240404408e-163
4.279777082e-163
6.096489525e-163
9.204008545e-163
1.445894465e-162
2.326962403e-162
4.216079245e-162
2.399800895e-159
6.157660769e-156
1.710665538e-155
1.52989732e-154
9.237068425e-152
3.814255129e-149
3.873518661e-147
2.421782094e-148
9.068783447e-137
1.597509645e-138
0
2.855187547e-119
3.06101693e-134
3.715853431e-108
7.586171717e-105
0
1.075536051e-92
1.858562418e-111
1.019031529e-83
1.490467596e-89
1.762551594e-76
4.499978481e-78
5.906991636e-77
6.369991948e-78
2.77570285e-103
1.52667516e-05
0.009923521323
0.105156096
8.089351211e-161
4.445917952e-161
3.889317646e-161
4.174036519e-161
4.323778802e-161
5.141388814e-161
6.592988802e-161
9.062448815e-161
1.314980838e-160
1.980086013e-160
3.058580653e-160
5.17001823e-160
1.660361052e-157
4.436052371e-154
1.131154685e-153
2.362339311e-153
5.273915309e-151
1.899425287e-148
9.277832256e-147
2.421862724e-148
2.416898697e-135
1.562857109e-138
1.57725832e-123
7.591257769e-119
7.993128033e-125
1.674300392e-108
1.947010596e-113
7.053099772e-99
8.569093351e-95
1.848083239e-99
3.238909941e-86
2.241477128e-89
2.873910442e-78
4.36682585e-80
2.408710311e-81
2.228807018e-82
2.729527997e-102
1.824031773e-05
0.01023861262
0.1072476772
1.259674795e-158
6.976674543e-159
6.055892845e-159
6.382619752e-159
6.489021698e-159
7.524852973e-159
9.324532599e-159
1.231631993e-158
1.712697454e-158
2.471879492e-158
3.679602595e-158
5.911416278e-158
9.881228868e-156
2.892974093e-152
6.448729429e-152
9.477451595e-152
3.105193673e-150
8.206319946e-148
2.210853994e-147
2.421781582e-148
6.445289305e-135
8.940085056e-138
4.33713969e-129
2.456028136e-119
6.361012279e-132
1.07434209e-109
1.060136175e-113
9.096793894e-99
3.860802117e-98
6.725365344e-92
3.851816023e-98
6.326135867e-85
2.899657989e-81
5.527857701e-83
1.151178099e-85
1.628001741e-86
0
2.113599926e-05
0.01053268128
0.1066415951
1.86638582e-156
1.027858762e-156
8.762287424e-157
8.983371789e-157
8.917780555e-157
1.00241802e-156
1.195743405e-156
1.514386232e-156
2.01985794e-156
2.811542377e-156
4.084925535e-156
6.388751591e-156
4.931017975e-154
1.711831619e-150
3.115016418e-150
4.742435196e-150
3.482406475e-149
4.246313973e-147
6.159683746e-148
4.72105312e-148
6.441889137e-135
5.708710119e-137
2.09788637e-123
4.747184841e-126
1.714729228e-113
6.028195391e-112
1.947010596e-113
1.496600042e-99
4.248525682e-102
2.328180769e-92
3.806670999e-98
3.436528767e-85
1.537363554e-85
3.973418475e-87
0
1.251460246e-81
0
2.410553845e-05
0.01078788632
0.1072090559
2.605250611e-154
1.39712772e-154
1.155732411e-154
1.14186113e-154
1.101849777e-154
1.195506198e-154
1.371531768e-154
1.670439423e-154
2.157576277e-154
2.952110058e-154
4.293782831e-154
6.701561688e-154
1.976058287e-152
9.356585187e-149
1.343600832e-148
2.709370409e-148
9.364266813e-148
1.36482638e-146
6.201367596e-148
1.431238937e-139
1.414253099e-135
5.460545757e-137
6.464840302e-124
4.98745002e-126
2.352327628e-113
1.01875507e-114
1.008200301e-105
6.310873328e-101
4.815405254e-102
1.188961705e-93
3.851816012e-98
2.411083122e-86
3.499109535e-86
5.490432791e-85
0
1.594128645e-76
9.536995073e-96
2.69815643e-05
0.01104343514
0.1066415951
3.340636716e-152
1.703595145e-152
1.352518732e-152
1.279266352e-152
1.197304955e-152
1.255117687e-152
1.394631427e-152
1.659767754e-152
2.136791601e-152
2.985459339e-152
4.471296901e-152
6.981417743e-152
5.829894307e-151
4.82658987e-147
7.218127706e-147
1.951695703e-146
2.829600341e-146
3.954561015e-146
1.465222782e-147
7.405843792e-139
7.454473137e-139
1.096832244e-130
3.596721865e-125
3.227080296e-130
1.598761641e-113
1.639478293e-113
9.680200908e-124
1.547898008e-97
2.182820536e-98
7.540338655e-96
3.806670999e-98
5.368254735e-89
4.340372156e-89
5.292219358e-80
0
1.69274842e-71
0
2.998921788e-05
0.01127075441
0.1069784781
3.772006658e-150
1.791397026e-150
1.356241239e-150
1.229730357e-150
1.120974166e-150
1.153375148e-150
1.277608352e-150
1.555820674e-150
2.114420808e-150
3.132229807e-150
4.76779618e-150
7.086733656e-150
9.980602924e-150
2.529501015e-145
9.641397043e-145
4.386550482e-144
9.52596966e-143
1.16400441e-142
2.071303083e-143
7.471211872e-152
7.204806903e-130
1.379539807e-127
8.938600425e-127
3.330721974e-130
5.361650108e-113
2.171613701e-111
7.777504678e-115
6.435434068e-96
2.818868528e-94
4.888413483e-91
1.874418973e-89
2.174056672e-92
3.028370943e-77
3.253088926e-75
0
1.479553405e-66
5.417557915e-86
3.292488168e-05
0.01150352788
0.1066633697
3.519181605e-148
1.540175685e-148
1.120926363e-148
1.001403831e-148
9.109465188e-149
9.751399992e-149
1.163126666e-148
1.574756939e-148
2.370114915e-148
3.607184799e-148
5.045521061e-148
6.394229918e-148
1.003667498e-149
1.732721489e-140
3.033077675e-139
1.131192072e-138
1.793532399e-137
1.859488463e-137
4.487173177e-138
0
1.927265409e-124
3.131097587e-122
6.079530756e-122
3.227080296e-130
6.125212223e-111
3.09813897e-110
4.181730234e-107
0
4.180481496e-89
1.096457381e-85
5.130701173e-84
1.3994834e-92
1.348668752e-73
2.617680338e-71
3.427935332e-91
1.050172367e-61
0
3.60171111e-05
0.01172263309
0.1067513648
2.454983492e-146
1.028294948e-146
7.752673219e-147
7.728722422e-147
7.595588135e-147
9.613487871e-147
1.346468244e-146
2.043586974e-146
3.09546937e-146
4.047104085e-146
4.251481478e-146
3.931167496e-146
1.003395504e-149
1.888405825e-136
9.569843406e-134
2.943768221e-133
3.006052324e-132
2.728752187e-132
1.055252597e-132
0
4.84506077e-119
6.631774037e-117
7.346116229e-117
3.551855335e-115
5.469409353e-110
7.075788569e-106
6.661627266e-101
1.152616233e-120
5.160408113e-84
2.369954626e-80
1.135210937e-78
5.440795602e-92
9.592872918e-72
1.23504873e-68
2.689689938e-88
5.85053971e-57
0
3.911325507e-05
0.01195386376
0.1068386041
1.154526088e-144
6.442098047e-145
6.68203355e-145
9.310324449e-145
1.060634094e-144
1.660440004e-144
2.753546396e-144
4.999746873e-144
9.996632111e-144
2.151261118e-143
4.913730232e-143
1.190690217e-142
1.004877592e-149
2.183673689e-132
2.669703826e-128
8.074962929e-128
4.419723137e-127
3.809323699e-127
2.737708416e-127
1.457060753e-147
1.05470332e-113
1.288694289e-111
8.898010545e-112
3.24820384e-115
3.560347692e-106
3.473464419e-106
3.573289175e-95
0
5.101355331e-79
5.014640653e-75
2.15334511e-73
6.768377235e-74
2.176374177e-83
2.386406503e-64
0
2.501005269e-52
0
4.242988196e-05
0.01218742901
0.1070134913
1.513757181e-139
1.779662515e-139
2.404602629e-139
3.821406074e-139
4.458970964e-139
7.175546425e-139
1.19236031e-138
2.137924184e-138
4.1804473e-138
8.751061407e-138
1.939114983e-137
4.550154138e-137
3.625002638e-146
2.210390686e-130
4.600962682e-124
2.33005459e-122
5.460585431e-122
5.454721552e-122
7.74177679e-122
6.796692486e-144
7.758097495e-110
1.974783507e-106
8.423009357e-107
3.963159208e-115
2.33292492e-101
1.674598064e-96
1.303150979e-91
1.711680175e-112
4.885189978e-75
1.569981856e-70
3.228096575e-68
1.064780125e-68
0
2.639122151e-59
9.293349635e-69
2.107438392e-48
0
4.581013547e-05
0.01243116205
0.1071362043
6.89471587e-134
8.10853351e-134
1.087861833e-133
1.708343884e-133
1.956228186e-133
3.103396205e-133
5.059672571e-133
8.862197946e-133
1.68653439e-132
3.428925015e-132
7.368183778e-132
1.674104439e-131
4.036615074e-131
3.10472944e-131
5.694268748e-122
1.538053083e-117
5.310014618e-117
9.228114124e-117
2.314650831e-116
0
5.6702997e-108
3.068280804e-103
3.88956179e-102
3.451047766e-115
1.172925406e-96
3.802680498e-92
5.278450118e-90
0
1.268877072e-72
3.285516869e-68
6.774167415e-64
1.269354866e-63
1.024663924e-83
2.270700453e-54
1.500765003e-50
1.275601729e-45
2.221805035e-65
4.938554295e-05
0.01266872617
0.1073240758
3.032880624e-128
3.56674979e-128
4.751062569e-128
7.369523736e-128
8.286264059e-128
1.29554579e-127
2.072263685e-127
3.545741078e-127
6.567018223e-127
1.296584425e-126
2.701404099e-126
5.939909535e-126
1.383601746e-125
3.382792033e-125
2.619218795e-125
5.018773644e-115
3.324076877e-112
2.20884763e-111
7.004535878e-111
2.198225602e-109
1.704402512e-109
8.085721454e-102
6.733267156e-99
4.751822434e-98
5.687108888e-93
1.236404835e-89
5.278515536e-90
4.213473167e-77
1.500757981e-71
6.628623235e-68
2.306167611e-61
1.258950754e-58
0
1.50745494e-50
4.023182833e-47
1.255066312e-43
1.065214581e-63
5.30791619e-05
0.01290622902
0.1074811536
1.29109008e-122
1.517671292e-122
2.006890556e-122
3.073373256e-122
3.395548887e-122
5.230449678e-122
8.207334231e-122
1.371843173e-121
2.472584578e-121
4.740163352e-121
9.573500334e-121
2.036848863e-120
4.579504382e-120
1.079273378e-119
8.162905371e-120
9.780548923e-115
1.508360624e-108
7.29324656e-106
2.050818576e-105
5.343556536e-104
1.337287122e-103
1.070204799e-103
5.00935963e-96
7.971615946e-93
3.408947449e-91
1.309706219e-88
5.309365519e-90
3.009845938e-75
2.092855728e-72
0
2.853260408e-60
1.27077678e-54
1.027451463e-52
3.548169625e-48
1.577189091e-45
2.344461666e-41
6.318476931e-62
5.699844431e-05
0.01310571324
0.1076771695
5.329120866e-117
6.258415078e-117
8.214133725e-117
1.241277622e-116
1.348625788e-116
2.045958265e-116
3.149093642e-116
5.141812937e-116
9.018249957e-116
1.678458684e-115
3.285310638e-115
6.761313803e-115
1.466659183e-114
3.331330031e-114
7.949369755e-114
2.066724286e-114
2.729967425e-106
2.562723769e-101
5.716814385e-100
1.191348839e-98
2.526475076e-98
4.729970377e-99
4.934974525e-94
2.0579135e-89
6.249538895e-88
1.312009275e-88
1.007666795e-80
1.953827991e-76
1.732668671e-74
1.301818292e-93
4.182971475e-73
2.939986347e-52
6.070353046e-50
1.847729941e-46
2.110274347e-42
1.65238041e-39
0
6.128914459e-05
0.01328864434
0.1078904798
2.136714373e-111
2.505553108e-111
3.263327673e-111
4.863390229e-111
5.201015477e-111
7.767773696e-111
1.172624434e-110
1.87024601e-110
3.191798593e-110
5.766412245e-110
1.093600969e-109
2.176446054e-109
4.554858413e-109
9.952673779e-109
2.284186503e-108
5.754448088e-108
4.548653161e-108
4.633287646e-99
1.493139656e-94
2.415955637e-93
4.325961492e-93
1.066222117e-93
3.927243372e-94
8.260093293e-88
2.537309035e-85
1.318704269e-88
1.920004927e-79
1.082685571e-75
2.495954988e-74
2.781684114e-75
1.724044394e-71
3.078316547e-51
5.677220286e-48
3.293409006e-44
1.408313859e-40
9.689686485e-37
0
6.615356685e-05
0.01345157781
0.1081291133
8.336586495e-106
9.755215989e-106
1.260517387e-105
1.851584079e-105
1.950999692e-105
2.867375652e-105
4.244860676e-105
6.612840624e-105
1.098060906e-104
1.92537361e-104
3.537173694e-104
6.805321778e-104
1.373569174e-103
2.887665172e-103
6.359365936e-103
1.533945829e-102
3.607651437e-102
7.894327622e-109
1.025284234e-90
4.437529058e-88
6.658847194e-88
1.440807869e-88
4.459310638e-90
1.839607036e-88
3.905450031e-84
2.536989322e-82
2.556679536e-82
1.049834195e-74
3.468921761e-72
4.107470039e-71
5.110854477e-70
9.077509186e-66
5.583071959e-46
1.422822567e-43
5.402554596e-39
1.000493967e-35
0
7.174015858e-05
0.01360469651
0.1083826945
3.170376175e-100
3.699827016e-100
4.741686353e-100
6.860928586e-100
7.130711261e-100
1.030831374e-99
1.496314989e-99
2.27669834e-99
3.678050335e-99
6.258412932e-99
1.113521088e-98
2.070459659e-98
4.028951553e-98
8.146262264e-98
1.721984719e-97
3.965771786e-97
8.926877987e-97
0
5.854269109e-89
2.083920025e-84
9.172668971e-83
1.85935163e-83
4.444510443e-85
1.038371691e-84
1.584631805e-84
2.933957186e-81
5.350635314e-79
1.659042157e-75
5.017906141e-71
1.89005564e-68
9.854890301e-67
0
4.246828919e-45
1.639437055e-41
9.437088062e-40
0
2.045733013e-25
7.804720614e-05
0.01373434219
0.1086619233
1.17711781e-94
1.369098302e-94
1.739809571e-94
2.478252065e-94
2.543492131e-94
3.615072322e-94
5.144561451e-94
7.644717489e-94
1.201497301e-93
1.983681915e-93
3.417512369e-93
6.139511634e-93
1.151428036e-92
2.238291526e-92
4.53946271e-92
9.975851112e-92
2.149373699e-91
5.042316182e-91
4.076889963e-91
1.189095062e-82
2.4811138e-79
1.655097354e-78
3.907332122e-80
7.635591035e-80
7.312188896e-80
1.374778229e-79
6.712573441e-78
6.708077015e-78
3.304633474e-70
6.131236049e-67
2.17977123e-65
3.083692982e-64
1.647984978e-43
5.635160391e-40
2.212957682e-38
6.921970931e-43
3.125446647e-10
8.5001844e-05
0.01384119306
0.1089636749
4.27367584e-89
4.950821836e-89
6.23634976e-89
8.739930966e-89
8.868478383e-89
1.238714666e-88
1.727983447e-88
2.507600034e-88
3.833976301e-88
6.141203039e-88
1.024271499e-87
1.777391234e-87
3.21164047e-87
6.000291523e-87
1.167069664e-86
2.448614681e-86
5.025635344e-86
1.124840207e-85
2.576520659e-85
2.099984636e-85
1.105912638e-77
2.282960295e-75
2.977667911e-75
4.859733024e-75
4.168136654e-75
2.531811559e-75
1.069057799e-75
6.757174475e-78
3.050522928e-69
2.840082121e-66
4.736043719e-65
5.653361315e-65
8.534276789e-43
2.090155856e-39
5.583215365e-38
4.249632934e-41
9.506984303e-10
9.190254786e-05
0.01391705576
0.1092861031
1.519582896e-83
1.752165805e-83
2.187170239e-83
3.013950293e-83
3.027427957e-83
4.153724654e-83
5.679206465e-83
8.04806981e-83
1.197018177e-82
1.860036554e-82
3.002879432e-82
5.03212535e-82
8.758140803e-82
1.572126948e-81
2.931413715e-81
5.869253991e-81
1.148694458e-80
2.440380096e-80
5.330173164e-80
1.283430159e-79
1.055171506e-79
7.771390933e-74
4.5195884e-71
2.577880654e-70
2.01322817e-70
1.149381569e-70
4.697687591e-71
2.36289833e-72
6.026260026e-69
1.884972743e-66
2.338211522e-65
1.204368898e-66
4.882907537e-43
9.529966756e-40
2.391372938e-38
1.7036332e-38
1.870425607e-09
9.826650088e-05
0.01396412057
0.1096235062
5.299571521e-78
6.078257003e-78
7.516339132e-78
1.017852256e-77
1.013385768e-77
1.365185878e-77
1.829254503e-77
2.531342095e-77
3.662483129e-77
5.520614616e-77
8.625897621e-77
1.395664113e-76
2.339106926e-76
4.033086687e-76
7.206699134e-76
1.376377977e-75
2.56789305e-75
5.183753894e-75
1.072445481e-74
2.449773471e-74
6.086619685e-74
1.304451191e-73
2.177744127e-68
2.824009509e-66
7.713875077e-66
4.258454082e-66
1.733890077e-66
8.954388392e-68
2.0712533e-66
2.554207382e-65
2.311629561e-66
6.444575089e-64
4.52749111e-44
6.014696383e-41
1.619107083e-39
3.052194123e-36
2.988828841e-09
0.0001034336396
0.01396255493
0.1099724291
1.815455843e-72
2.069771766e-72
2.534743867e-72
3.371285267e-72
3.331233647e-72
4.404485345e-72
5.783209795e-72
7.814762863e-72
1.099934708e-71
1.608272348e-71
2.431870155e-71
3.798546562e-71
6.129264764e-71
1.014871807e-70
1.737340983e-70
3.16383823e-70
5.625382112e-70
1.07839358e-69
2.116670524e-69
4.558475018e-69
1.068283176e-68
2.441216682e-68
6.11324994e-67
1.520334173e-63
6.300186178e-62
1.163199816e-61
4.982303551e-62
2.465639393e-63
8.656958954e-63
7.61198212e-62
4.513659724e-68
1.316808739e-49
3.17504822e-45
3.136850843e-43
4.034206411e-54
5.604842874e-35
4.122969387e-09
0.0001067853289
0.0139316481
0.110327765
6.117488944e-67
6.928148436e-67
8.399957995e-67
1.096703615e-66
1.076954062e-66
1.396982409e-66
1.797321895e-66
2.371666783e-66
3.247561189e-66