/*--------------------------------*- C++ -*----------------------------------*\
| =========                 |                                                 |
| \\      /  F ield         | OpenFOAM: The Open Source CFD Toolbox           |
|  \\    /   O peration     | Version:  v1912                                 |
|   \\  /    A nd           | Website:  www.openfoam.com                      |
|    \\/     M anipulation  |                                                 |
\*---------------------------------------------------------------------------*/
FoamFile
{
    version     2.0;
    format      ascii;
    class       volScalarField;
    location    "0.3";
    object      alpha.gas;
}
// * * * * * * * * * * * * * * * * * * * * * * * * * * * * * * * * * * * * * //

dimensions      [0 0 0 0 0 0 0];


internalField   nonuniform List<scalar> 
4800
(
2.496559606e-225
1.491471897e-225
1.48777141e-225
2.800914981e-225
2.192404886e-221
4.487417961e-217
7.474919446e-213
1.039890443e-208
1.233485815e-204
1.264784524e-200
1.140422145e-196
9.138142509e-193
6.567129916e-189
4.268519764e-185
2.528152419e-181
1.372663385e-177
6.881135836e-174
3.187180646e-170
1.366134541e-166
5.453395058e-163
2.016531012e-159
6.951059444e-156
2.22766714e-152
1.592920015e-149
1.397694739e-148
1.64886295e-143
3.469461679e-144
3.17485247e-144
6.28966042e-105
3.645521754e-105
5.333817963e-119
1.755258332e-77
2.607468677e-76
2.629099314e-76
2.585799936e-61
2.844163834e-77
8.538242714e-49
1.630407087e-64
2.615970148e-05
0.01160363611
1.617484598e-221
9.61615412e-222
9.560669588e-222
1.256847369e-221
6.510694166e-220
1.321598961e-215
2.256536438e-211
3.216421056e-207
3.92975723e-203
4.167371899e-199
3.887944131e-195
3.2288238e-191
2.413093972e-187
1.633994006e-183
1.00978414e-179
5.725985695e-176
2.987746169e-172
1.437421808e-168
6.385595977e-165
2.622318584e-161
9.928785968e-158
3.485644393e-154
1.104702806e-150
2.215268953e-148
1.135997369e-154
2.605627792e-138
5.005871741e-139
1.585245809e-141
3.164312159e-124
4.050883394e-100
8.842979451e-120
1.211193723e-74
0
2.076475717e-60
1.081603492e-58
8.740697562e-77
1.07552516e-45
1.632815135e-64
0.0001863892769
0.0161887518
5.077672557e-218
3.010178975e-218
2.984459552e-218
3.897941231e-218
8.156183507e-218
6.216847459e-214
1.05654401e-209
1.498369092e-205
1.8156783e-201
1.907130891e-197
1.759256577e-193
1.441303289e-189
1.059845776e-185
7.043289264e-182
4.257651868e-178
2.351164933e-174
1.187782993e-170
5.487540554e-167
2.310916676e-163
8.825352237e-160
3.010249788e-156
9.06067515e-153
2.031728353e-149
1.495982279e-146
9.515462788e-156
9.143462726e-134
1.808712836e-134
1.404450107e-136
0
3.572165286e-95
1.154579627e-114
3.388624424e-73
0
1.184085207e-56
4.238307474e-56
0
8.322723683e-44
7.913305943e-64
0.0004769880054
0.0214372932
1.035846584e-214
6.130198422e-215
6.062758382e-215
7.880904065e-215
1.04293718e-214
1.484374235e-212
2.496963274e-208
3.562107171e-204
4.3277043e-200
4.573823337e-196
4.242138356e-192
3.489578107e-188
2.569955767e-184
1.706304802e-180
1.026122592e-176
5.601512841e-173
2.773568572e-169
1.240316823e-165
4.956855253e-162
1.741097068e-158
5.135618324e-155
1.165733329e-151
1.60473582e-149
2.802598538e-144
6.500065723e-156
1.787898473e-130
2.50190822e-131
5.295740377e-133
0
1.301910213e-91
1.086636703e-110
5.995065842e-73
8.026247849e-93
2.224845573e-54
7.634417326e-55
2.959463265e-65
7.559451455e-43
9.815162257e-64
0.0008639449914
0.02625475411
1.548012139e-211
9.15205767e-212
9.029513841e-212
1.167799145e-211
1.520902576e-211
6.552953394e-211
7.031801752e-207
9.987249173e-203
1.205005631e-198
1.261977486e-194
1.154629793e-190
9.336744222e-187
6.73480274e-183
4.362748293e-179
2.549608253e-175
1.346972724e-171
6.427237322e-168
2.756439704e-164
1.051660167e-160
3.509900072e-157
9.771925907e-154
2.073427432e-150
4.230843765e-152
6.797051896e-140
9.786428415e-156
1.803986392e-127
3.924234736e-128
2.564229135e-129
2.600547785e-148
2.340069842e-89
2.396378384e-108
5.994560996e-73
6.779369884e-92
3.381048012e-53
6.648623802e-72
2.583237546e-46
1.022732193e-42
6.200951901e-66
0.001260365271
0.03060360102
1.809978194e-208
1.069425321e-208
1.052344304e-208
1.353334875e-208
1.744960182e-208
2.807486081e-208
1.195591683e-205
1.627106229e-201
1.88904861e-197
1.901362333e-193
1.66941929e-189
1.29272734e-185
8.909696161e-182
5.499879773e-178
3.05401248e-174
1.528584146e-170
6.890383983e-167
2.784251557e-163
9.986337811e-160
3.128249582e-156
8.168846612e-153
1.626937262e-149
4.170650254e-152
2.705849168e-137
3.147500267e-155
3.819448186e-126
6.403360606e-123
1.772874341e-124
3.968225414e-144
1.182137365e-87
1.238861643e-106
5.886532458e-73
0
6.772689809e-53
9.620116373e-63
4.716791664e-45
1.021131593e-42
2.605292312e-65
0.001685413162
0.03473183323
1.726275882e-205
1.019372805e-205
9.999964833e-206
1.277740113e-205
1.630314442e-205
2.518798431e-205
1.786666545e-204
1.513859364e-200
1.534863139e-196
1.349739174e-192
1.035689187e-188
6.97037436e-185
4.146375509e-181
2.174238345e-177
1.001369407e-173
4.020069558e-170
1.386647981e-166
4.010821686e-163
9.352066061e-160
1.655786128e-156
2.031459792e-153
2.380142545e-150
1.045517835e-151
2.633061407e-136
2.342064862e-137
0
5.721355566e-118
1.239113303e-119
0
9.080058062e-85
2.58992962e-104
4.499505396e-73
0
6.778136666e-53
0
8.811150952e-45
9.766350482e-43
0
0.002090166571
0.0388032952
1.382281224e-202
8.154831413e-203
7.969425316e-203
1.010757059e-202
1.275431285e-202
1.939780643e-202
4.512419727e-202
7.887471951e-199
7.779871238e-195
6.641631162e-191
4.932384708e-187
3.202997228e-183
1.832797407e-179
9.215031732e-176
4.055002041e-172
1.548892165e-168
5.05476238e-165
1.370697687e-161
2.939473563e-158
4.526689204e-155
3.655273432e-152
4.170056696e-152
1.815882806e-151
4.747666074e-137
8.898952006e-133
6.684042459e-153
5.031473139e-115
2.063480408e-116
0
8.022150398e-83
0
2.515378446e-72
0
6.774086685e-53
9.620116373e-63
8.558034771e-45
5.760268857e-43
6.054743211e-68
0.002388633183
0.04303052253
9.489788852e-200
5.589307145e-200
5.436427408e-200
6.836575335e-200
8.526334195e-200
1.276064799e-199
2.466778977e-199
2.969538537e-197
2.808978805e-193
2.330252816e-189
1.676907852e-185
1.052297276e-181
5.803406629e-178
2.805149708e-174
1.183880789e-170
4.327668995e-167
1.349109747e-163
3.490329101e-160
7.141951239e-157
1.052863718e-153
8.002433402e-151
7.234316753e-152
5.847000454e-144
1.133727265e-148
4.508368237e-129
2.171712329e-146
8.954793378e-114
9.871038886e-113
7.94676352e-132
8.03198224e-82
0
5.238785995e-72
6.958810442e-92
5.390423243e-53
3.926453382e-71
5.153567726e-45
1.403634304e-43
4.537286241e-66
0.002848004635
0.04750263061
5.675283671e-197
3.333562197e-197
3.223571026e-197
4.014913362e-197
4.94608357e-197
7.28028455e-197
1.349262077e-196
1.002310815e-195
6.856442832e-192
5.527165124e-188
3.8546904e-184
2.337979153e-180
1.243116044e-176
5.779403285e-173
2.341018061e-169
8.198822522e-166
2.445882098e-162
6.055448979e-159
1.18875864e-155
1.695401686e-152
1.20985039e-149
8.898434019e-152
8.391510486e-142
4.830924498e-148
6.519902146e-127
3.833592126e-128
0
8.075140516e-108
0
1.371808254e-81
2.881729352e-100
5.240910972e-72
0
2.112221301e-53
9.62011638e-63
1.275867569e-45
9.675465329e-45
1.793035391e-63
0.003395622539
0.05213404966
2.993123218e-194
1.750966386e-194
1.681404311e-194
2.071785492e-194
2.519836012e-194
3.646304824e-194
6.545718662e-194
1.392378392e-193
1.025516381e-190
8.015206421e-187
5.419299819e-183
3.178852509e-179
1.630980246e-175
7.302668676e-172
2.844601009e-168
9.573940865e-165
2.746553405e-161
6.560816827e-158
1.2537432e-154
1.776235229e-151
1.179445459e-148
1.162331034e-151
6.033274139e-141
1.133425671e-148
4.768373057e-126
4.845712463e-127
0
5.824349611e-103
1.354089925e-121
1.372124018e-81
0
3.885948185e-72
0
2.724425783e-54
7.53421067e-72
9.220022186e-47
1.315890199e-46
1.770250558e-70
0.00393208904
0.05680288739
1.405574863e-191
8.176507966e-192
7.787887085e-192
9.483987116e-192
1.13838993e-191
1.619077285e-191
2.819152333e-191
5.372659068e-191
8.323111176e-190
5.507452307e-186
3.616598193e-182
2.05739012e-178
1.022763314e-174
4.436549186e-171
1.676554299e-167
5.495856657e-164
1.548153884e-160
3.689028655e-157
7.240875042e-154
1.107032695e-150
6.638417131e-148
3.037072689e-151
6.055118102e-141
4.830924498e-148
4.791729876e-126
7.793563303e-127
0
1.717798476e-98
0
1.315240047e-81
1.606728556e-100
7.760589861e-73
4.937538044e-75
6.700462367e-56
9.620116398e-63
1.249858492e-48
3.083602541e-49
0
0.004453677333
0.06136287816
5.922271149e-189
3.420259261e-189
3.227746259e-189
3.881641195e-189
4.597116822e-189
6.426376062e-189
1.086497811e-188
2.012221773e-188
4.065842886e-188
3.582109716e-186
2.395836593e-182
1.454750972e-178
7.912046414e-175
3.861264296e-171
1.697081123e-167
6.731217554e-164
2.391441714e-160
7.494848696e-157
2.00432864e-153
4.224227268e-150
2.083607212e-147
1.283117081e-150
6.047522077e-141
1.133425671e-148
4.787385724e-126
7.190148019e-127
2.730497989e-146
1.615346432e-95
8.561170541e-115
7.714000537e-82
2.461872702e-100
2.022521405e-74
3.659248127e-64
3.143487093e-71
2.030843817e-53
2.129953468e-51
1.654773089e-52
6.709431297e-72
0.004964077661
0.06568346583
2.252487576e-186
1.289485517e-186
1.204646548e-186
1.429830362e-186
1.670731187e-186
2.296282208e-186
3.774287417e-186
6.808480824e-186
1.325560041e-185
4.364374661e-185
1.126297472e-181
6.917968075e-178
3.786127896e-174
1.84740961e-170
8.061449274e-167
3.150225224e-163
1.094140435e-159
3.32915865e-156
8.595612888e-153
1.744289538e-149
6.883329493e-147
8.904038919e-148
3.269510136e-141
4.830924498e-148
2.606469268e-126
3.713426192e-127
1.745913782e-146
8.063236933e-94
3.642012744e-113
1.961346902e-82
2.318968731e-83
0
3.09280312e-64
0
1.586628146e-53
3.095350362e-54
4.466170718e-56
0
0.005468283792
0.06968939549
7.771127744e-184
4.404031038e-184
4.070432825e-184
4.767538231e-184
5.497310274e-184
7.43330291e-184
1.189469132e-183
2.09199931e-183
3.970866641e-183
8.043012068e-183
1.239028191e-181
5.70514962e-178
2.895452009e-174
1.368351588e-170
5.897466357e-167
2.279786909e-163
7.811427615e-160
2.346421366e-156
6.029089232e-153
1.262702662e-149
9.362656625e-147
1.219471547e-144
5.510342811e-142
1.133425671e-148
4.543532163e-127
6.399123349e-128
0
3.564870521e-93
1.888919243e-112
7.558835613e-83
1.72910599e-83
0
8.870506787e-65
1.31660442e-83
3.24152297e-54
2.516464779e-55
9.660910276e-58
0
0.005965858786
0.07337413188
2.441512329e-181
1.36851879e-181
1.251156541e-181
1.446453546e-181
1.646599737e-181
2.192562439e-181
3.421114905e-181
5.872767586e-181
1.088008342e-180
2.145821773e-180
5.645627103e-180
3.673029879e-177
9.2709322e-174
2.002890633e-170
3.594800057e-167
6.061930952e-164
1.076748241e-160
2.401897345e-157
6.630720352e-154
2.000395549e-150
7.349488689e-147
9.467354975e-144
1.737643353e-143
1.742421012e-146
1.563792777e-128
2.160064935e-129
0
3.576215408e-93
0
7.193576692e-83
1.028927157e-83
1.167290325e-102
5.090351476e-66
4.559209786e-85
9.753786136e-56
6.77938538e-57
1.399211578e-59
0
0.006449272736
0.0767896473
7.008175982e-179
3.884290352e-179
3.513947121e-179
4.01286108e-179
4.513051458e-179
5.925331961e-179
9.029998967e-179
1.514569006e-178
2.740814189e-178
5.275518705e-178
1.094635161e-177
1.190241667e-175
2.988530385e-172
6.343984767e-169
9.056152432e-166
1.193284069e-162
1.20406318e-159
8.681291052e-157
4.050244537e-154
1.762735199e-151
4.246998833e-147
9.475263994e-144
6.563144844e-160
1.869983535e-128
3.381884712e-129
1.562785622e-129
0
3.1653548e-93
4.057568229e-112
6.698389659e-83
2.243650017e-84
0
3.73814835e-68
0
2.696222919e-58
2.235049095e-59
4.368149023e-78
0
0.006912123199
0.08001524359
1.843182187e-176
1.010774777e-176
9.056936597e-177
1.022943796e-176
1.137618224e-176
1.474810138e-176
2.198607555e-176
3.605987951e-176
6.376026285e-176
1.197286811e-175
2.342097261e-175
3.915202912e-174
1.08200829e-170
2.562323706e-167
2.239858986e-164
2.814535701e-161
2.674121889e-158
1.759343941e-155
6.61621166e-153
1.031360003e-150
4.625726096e-148
9.480572442e-144
1.622406363e-162
2.643706946e-124
2.003041056e-125
3.937146002e-127
0
1.317261446e-93
0
4.203195508e-83
0
2.464223264e-72
1.708662742e-71
0
4.6763944e-62
5.219498923e-63
0
1.092162357e-06
0.007355020442
0.08310105279
4.454012409e-174
2.420763787e-174
2.151918755e-174
2.407843751e-174
2.650535741e-174
3.39748367e-174
4.960630115e-174
7.958054267e-174
1.374320169e-173
2.514404126e-173
4.763183484e-173
2.106486563e-172
6.319311245e-169
1.730425793e-165
4.810490638e-163
5.75293237e-160
5.175087208e-157
3.144058609e-154
1.008369473e-151
1.08341642e-149
4.613465834e-148
7.085314198e-144
9.17465779e-163
1.09089082e-121
6.563263193e-123
1.215180379e-125
0
1.547095448e-94
7.514195969e-114
1.091358141e-83
9.411286668e-103
9.508193435e-73
1.070285093e-88
5.675312624e-67
6.830346692e-66
1.085402392e-66
0
3.279875077e-06
0.007791073829
0.08603579478
9.91891365e-172
5.35855102e-172
4.735949871e-172
5.259173206e-172
5.735233446e-172
7.275378755e-172
1.041003184e-171
1.632613216e-171
2.750058561e-171
4.891624303e-171
8.985215108e-171
2.422035546e-170
5.856546637e-167
1.644964805e-163
9.158754294e-162
1.008055585e-158
8.61261415e-156
4.842576004e-153
1.304296383e-150
8.365434925e-149
3.938705526e-147
2.165463452e-144
1.740108721e-163
2.240684647e-120
1.339106459e-121
3.703500304e-124
5.178422425e-120
3.136461424e-96
6.457808995e-115
6.962975227e-85
0
5.723828726e-74
2.050163553e-80
1.656720108e-67
4.907751876e-67
7.560712232e-68
0
5.508947958e-06
0.008221613498
0.08874573231
2.043108895e-169
1.101587523e-169
9.702657609e-170
1.070832842e-169
1.157290724e-169
1.452918912e-169
2.036523888e-169
3.117587457e-169
5.110493023e-169
8.812571791e-169
1.56583688e-168
3.564944631e-168
5.95826626e-165
1.620805219e-161
1.809055731e-160
1.491266956e-157
1.213407843e-154
6.326622046e-152
1.402833103e-149
3.944012485e-148
2.248130346e-146
9.511209599e-146
9.530875801e-163
4.380672138e-120
3.626945003e-121
1.602440861e-126
5.79641199e-101
3.064660976e-99
1.307960603e-97
5.435078192e-87
0
3.08566167e-76
1.070802867e-88
6.16680303e-69
2.579399571e-68
3.712886852e-69
0
7.816110748e-06
0.008656731589
0.09134247255
3.910630743e-167
2.114146068e-167
1.859240648e-167
2.039992911e-167
2.183864671e-167
2.7100435e-167
3.715503838e-167
5.537975628e-167
8.807445564e-167
1.467693844e-166
2.515859403e-166
5.159742339e-166
5.648454817e-163
1.49070676e-159
6.035816539e-159
1.823429743e-156
1.413837042e-153
6.845691104e-151
1.218484737e-148
4.260150806e-148
8.123464026e-143
1.436367319e-142
0
4.378321908e-120
3.002047737e-121
1.590221881e-140
2.439683832e-101
1.483077257e-103
3.193665306e-91
0
6.583217704e-82
4.396183614e-80
2.050163553e-80
1.745842115e-71
3.279877994e-70
4.386747056e-71
3.936788092e-104
1.026496875e-05
0.009090059448
0.09387429696
6.995354664e-165
3.806927994e-165
3.344161644e-165
3.64243644e-165
3.856247185e-165
4.717261256e-165
6.309524858e-165
9.126779857e-165
1.40339815e-164
2.253340316e-164
3.719422998e-164
7.013120772e-164
4.798958846e-161
1.253439694e-157
3.728296208e-157
1.819502801e-155
1.319184394e-152
5.922851858e-150
8.148791e-148
2.421899021e-148
3.164099382e-139
9.062127432e-140
1.983091666e-159
2.712620342e-120
9.246082265e-122
1.602440861e-126
1.644481242e-102
1.523053598e-122
1.373587586e-91
0
2.351943232e-82
2.241477128e-89
9.720080647e-76
2.682504552e-75
5.414204118e-73
6.670540378e-74
1.830819121e-104
1.282850554e-05
0.009542803484
0.0971717389
1.17670897e-162
6.454232334e-163
5.651760071e-163
6.087869727e-163
6.356417569e-163
7.634483506e-163
9.928939155e-163
1.388963041e-162
2.058539376e-162
3.178714217e-162
5.05278772e-162
8.89449958e-162
3.604925655e-159
9.596240727e-156
2.585995909e-155
1.701212444e-154
9.535364991e-152
3.920782865e-149
3.914143499e-147
2.42178277e-148
9.417554717e-137
1.716678575e-138
0
2.912856596e-119
4.80486385e-134
3.35447761e-108
9.651138187e-105
3.190945325e-117
1.170914971e-92
1.727431794e-111
1.162444846e-83
1.490467596e-89
1.896818476e-76
5.143591239e-78
7.503838995e-77
8.426784924e-78
3.193985278e-103
1.550515137e-05
0.009994255645
0.1043859705
1.870503402e-160
1.030232953e-160
8.947944108e-161
9.476244891e-161
9.722684353e-161
1.141188029e-160
1.438137062e-160
1.939862664e-160
2.766126138e-160
4.110286768e-160
6.315065193e-160
1.054778993e-159
2.364737575e-157
6.676957532e-154
1.624061325e-153
3.126796282e-153
5.460822792e-151
1.944677957e-148
9.185521494e-147
2.421862896e-148
2.435420896e-135
1.676956684e-138
1.535032796e-123
7.420579591e-119
7.993127396e-125
1.700464911e-108
0
3.981854226e-99
1.040213733e-94
1.301170191e-99
4.288524343e-86
2.241477128e-89
3.542390122e-78
5.456596039e-80
3.093277886e-81
2.979886789e-82
0
1.856174801e-05
0.01032389112
0.1070689067
2.811599147e-158
1.53981393e-158
1.316472148e-158
1.361059783e-158
1.366928637e-158
1.560904325e-158
1.901148978e-158
2.469886209e-158
3.39331058e-158
4.87859067e-158
7.313171938e-158
1.180287486e-157
1.331378088e-155
4.221184248e-152
8.851693835e-152
1.356934003e-151
3.355424682e-150
8.442459997e-148
2.247433387e-147
2.421782258e-148
6.38408873e-135
1.768485959e-137
3.925304358e-129
2.544491655e-119
0
1.220917367e-109
1.060136175e-113
8.967469874e-99
5.550712871e-98
6.563621582e-92
3.851815995e-98
5.069666936e-85
4.050648306e-81
7.638022676e-83
1.48148028e-85
3.711115281e-86
2.742715714e-102
2.155848523e-05
0.01062638711
0.1068339727
3.968270832e-156
2.128864046e-156
1.775908875e-156
1.780102091e-156
1.744191669e-156
1.932141956e-156
2.274426655e-156
2.855014514e-156
3.810050768e-156
5.373300427e-156
7.983756509e-156
1.265762529e-155
6.26343359e-154
2.437330241e-150
4.258548507e-150
7.225370299e-150
4.19532484e-149
4.289233113e-147
6.216231132e-148
4.336696537e-148
6.375940607e-135
6.427597653e-137
2.051003774e-123
5.496302176e-126
1.716734694e-113
7.635992492e-112
1.427320366e-129
1.632076143e-99
4.248525682e-102
2.393107515e-92
3.806670998e-98
3.44001344e-85
2.330626072e-85
6.175287951e-87
2.666803609e-104
3.336638681e-81
0
2.462932964e-05
0.01088759829
0.1072105009
5.170106072e-154
2.670750168e-154
2.156433579e-154
2.085973521e-154
1.991208275e-154
2.142967246e-154
2.453665532e-154
3.014482846e-154
3.988601391e-154
5.647505445e-154
8.439400648e-154
1.317541051e-153
2.351665794e-152
1.298250954e-148
2.1005956e-148
4.360566535e-148
1.122798611e-147
1.358847814e-146
6.19877354e-148
1.191481944e-139
1.509600118e-135
7.454472054e-139
6.724575694e-124
5.750645622e-126
2.302166339e-113
1.197220464e-114
3.29491347e-117
1.527291255e-100
4.815405254e-102
1.335538397e-93
3.851815743e-98
2.775984208e-86
3.637839561e-86
1.049625103e-84
0
3.647129903e-76
0
2.760116604e-05
0.01114780702
0.1068339727
6.046662706e-152
2.962615937e-152
2.305324517e-152
2.156040205e-152
2.012094885e-152
2.130585765e-152
2.424338251e-152
3.006743402e-152
4.078333971e-152
5.901770384e-152
8.789922222e-152
1.316198167e-151
6.426806683e-151
6.283201872e-147
1.48984894e-146
2.695687043e-146
2.851220938e-146
3.932825305e-146
1.411176769e-147
7.053431049e-139
6.236812757e-135
1.418585432e-138
3.986502351e-125
3.225007463e-130
1.612898274e-113
1.59226679e-113
4.567425171e-128
2.156624413e-97
2.424303254e-98
1.579504835e-95
3.806670811e-98
3.851815636e-98
3.703026645e-82
7.921616577e-80
3.901866305e-99
3.356979215e-71
7.327286145e-91
3.070299498e-05
0.01137999471
0.1069166539
6.101449631e-150
2.816486079e-150
2.126287579e-150
1.962239502e-150
1.820780502e-150
1.973895505e-150
2.343419098e-150
3.069746746e-150
4.334338554e-150
6.233905482e-150
8.77729289e-150
1.194120857e-149
9.996335188e-150
2.991440172e-145
2.97355879e-144
1.152472945e-143
1.924939633e-142
2.168508027e-142
5.232975587e-143
1.920584145e-152
2.314690315e-129
3.89977107e-127
1.359654267e-126
3.330721974e-130
5.937422793e-113
8.768191749e-111
7.777504667e-115
6.239753158e-96
6.557732737e-94
1.996836428e-90
9.544142555e-89
3.806670815e-98
1.324819771e-76
3.840601521e-75
1.863718815e-94
2.570072401e-66
5.417557915e-86
3.373632589e-05
0.01161571913
0.1068835888
5.034592056e-148
2.235528685e-148
1.708170743e-148
1.67160034e-148
1.615284044e-148
1.94020073e-148
2.541196996e-148
3.535628675e-148
4.883539402e-148
6.293338705e-148
7.607440959e-148
8.747128959e-148
1.00455332e-149
1.785308443e-140
9.060776832e-139
3.06215246e-138
3.353870997e-137
3.318042514e-137
1.2467604e-137
5.8818519e-153
5.699074567e-124
8.32585289e-122
1.100318897e-121
3.225007463e-130
5.879406114e-111
5.961341533e-111
1.443711534e-105
0
8.247209024e-89
4.37582097e-85
2.090396113e-83
3.851851019e-98
2.508735024e-73
2.56624912e-71
0
1.612082254e-61
3.107817199e-82
3.691606106e-05
0.01183747047
0.1069949013
3.227808002e-146
1.58488373e-146
1.421210444e-146
1.704559985e-146
1.803892527e-146
2.461022042e-146
3.364901788e-146
4.372151192e-146
4.932573388e-146
4.769771016e-146
4.374952032e-146
3.940477604e-146
1.004298365e-149
4.379888162e-136
2.644926375e-133
8.426211691e-133
5.168707914e-132
4.796938333e-132
3.244477155e-132
1.785876268e-153
1.281640174e-118
1.690372191e-116
1.287543014e-116
3.233772704e-130
5.525911596e-110
1.15988709e-110
4.470202102e-100
2.160557871e-114
8.384366625e-84
1.114582133e-79
3.809593338e-78
9.482107803e-92
9.090322623e-72
1.513170953e-68
7.179153145e-88
8.014604604e-57
3.057666858e-76
4.010569885e-05
0.01207007837
0.1070914147
1.96039031e-144
1.620286061e-144
1.999731357e-144
3.064114159e-144
3.565798178e-144
5.746363204e-144
9.643445765e-144
1.755595318e-143
3.499210591e-143
7.488518273e-143
1.700429364e-142
4.097895382e-142
1.341355027e-147
4.048735678e-132
6.317617829e-128
2.732381618e-127
6.890676131e-127
6.991423171e-127
9.163855034e-127
9.278799245e-147
2.564893439e-113
3.350164671e-111
1.336921474e-111
4.460376144e-131
4.637790212e-106
2.128883292e-110
1.064901367e-94
2.706174737e-114
5.998755883e-79
5.855147061e-74
5.839091834e-73
1.951051734e-73
1.024749476e-83
5.412356659e-64
9.036419228e-84
3.074569937e-52
3.148934147e-72
4.350956592e-05
0.01230449356
0.1072717426
5.240052898e-139
6.177960383e-139
8.329841325e-139
1.317686299e-138
1.523917521e-138
2.449151205e-138
4.054939851e-138
7.229475595e-138
1.403671295e-137
2.91855304e-137
6.429044858e-137
1.500548449e-136
4.614302942e-137
1.803543068e-130
1.279232725e-123
1.735787934e-121
7.586678936e-122
1.180847734e-121
2.713472148e-121
0
1.443687976e-109
3.387985303e-106
1.014466102e-106
6.181421394e-116
2.544282467e-101
2.831039801e-96
1.864299267e-91
0
3.936468577e-75
5.22754252e-70
7.280410221e-68
2.476313286e-68
0
4.807404816e-59
0
2.252434182e-48
0
4.698363983e-05
0.01254842936
0.1074170175
2.285092904e-133
2.693757947e-133
3.606342962e-133
5.635467649e-133
6.402106514e-133
1.014129401e-132
1.647609477e-132
2.870383662e-132
5.425672484e-132
1.095925633e-131
2.341466502e-131
5.292168982e-131
1.26936222e-130
9.807953158e-131
3.10017718e-121
4.988701055e-117
6.530184253e-117
2.739554479e-116
8.093345523e-116
0
9.124096142e-108
3.673595437e-103
3.832244256e-102
0
2.852566921e-96
5.145238296e-92
5.188051855e-90
0
1.342192352e-72
2.784468007e-68
9.646009017e-64
2.605252837e-63
0
3.075927491e-54
1.570000231e-50
1.259480129e-45
2.537068498e-65
5.064795733e-05
0.01278571086
0.1076150471
9.62843604e-128
1.134426967e-127
1.507805067e-127
2.326491701e-127
2.597909666e-127
4.054839307e-127
6.4638165e-127
1.100353432e-126
2.024776928e-126
3.972556679e-126
8.230520919e-126
1.800475216e-125
4.172306624e-125
1.014839429e-124
7.893167466e-125
4.968406616e-115
4.392220269e-112
8.798781078e-111
2.347015278e-110
6.226204068e-109
4.883545122e-109
8.05729361e-102
7.545619538e-99
9.385717748e-98
8.204200231e-93
1.360562483e-89
5.18997346e-90
6.282728754e-76
1.461985353e-71
1.614549497e-80
2.59668433e-61
2.353455039e-58
3.853612529e-71
1.511970934e-50
3.857493707e-47
1.254934962e-43
0
5.44347836e-05
0.01302948822
0.107786016
3.927577178e-122
4.622812558e-122
6.099047706e-122
9.287455072e-122
1.02019131e-121
1.568401319e-121
2.452906069e-121
4.080061388e-121
7.308273156e-121
1.392545644e-120
2.797164669e-120
5.921338959e-120
1.324409809e-119
3.106542333e-119
5.874999971e-119
1.553573882e-119
7.319252427e-108
3.22517002e-105
6.429462745e-105
1.385227611e-103
3.111729767e-103
2.52025061e-103
1.276650169e-95
1.523372983e-92
4.082910685e-91
1.287881906e-88
5.219471692e-90
3.602713091e-75
2.315039045e-72
8.385729389e-81
2.69667296e-60
1.734578607e-54
1.003866758e-52
3.504803785e-48
1.698406101e-45
2.31019556e-41
1.303426765e-61
5.843641003e-05
0.01323873461
0.1079836379
1.553830921e-116
1.826081129e-116
2.390978324e-116
3.59135753e-116
3.884002084e-116
5.879151756e-116
9.019735325e-116
1.46588528e-115
2.555758883e-115
4.728797311e-115
9.206828384e-115
1.885486243e-114
4.069723527e-114
9.196581662e-114
2.183449046e-113
8.16296555e-120
1.65414638e-105
1.014123558e-100
1.655270902e-99
2.818834836e-98
5.392534961e-98
7.829988625e-99
1.034153302e-93
3.029053686e-89
8.054111473e-88
1.29049752e-88
1.289265822e-80
2.728368682e-76
2.43384085e-74
1.614546321e-80
7.082999319e-73
3.245579026e-52
6.034539646e-50
2.904285647e-46
2.200906586e-42
1.976794429e-38
8.033668647e-71
6.280417289e-05
0.01342849012
0.1081995999
5.97243705e-111
7.004237412e-111
9.099490616e-111
1.347437379e-110
1.436063935e-110
2.139400633e-110
3.219353468e-110
5.111728448e-110
8.674147733e-110
1.558217302e-109
2.939935418e-109
5.822798516e-109
1.212682507e-108
2.63659411e-108
6.022876326e-108
1.506859682e-107
1.196385458e-107
1.691000577e-98
3.977967037e-94
5.217614227e-93
8.477064545e-93
1.998885815e-93
8.539346852e-94
1.058035646e-87
2.855835819e-85
1.29690042e-88
2.234357062e-79
1.19476341e-75
2.784472001e-74
4.031224821e-75
1.698368656e-71
2.980628866e-51
6.39410632e-48
3.202308309e-44
2.617526021e-40
1.061413903e-36
8.26362036e-53
6.774057871e-05
0.01359616783
0.1084427276
2.234077935e-105
2.613048274e-105
3.367405262e-105
4.913043943e-105
5.165327047e-105
7.570346194e-105
1.117193961e-104
1.732965346e-104
2.861907592e-104
4.990718491e-104
9.122738113e-104
1.746911327e-103
3.509199249e-103
7.34173128e-103
1.609514608e-102
3.856617837e-102
9.018650451e-102
1.043589099e-108
2.128748912e-90
8.754993087e-88
1.200009006e-87
2.621914865e-88
7.098223925e-90
2.508507331e-88
4.105587963e-84
2.478738623e-82
2.498155356e-82
1.051882877e-74
3.466753541e-72
4.941983482e-71
1.193955854e-69
0
5.482692371e-46
3.131506719e-42
6.558593014e-39
9.897513158e-36
4.966284714e-55
7.339536043e-05
0.01375269271
0.1087003829
8.146111615e-100
9.496828544e-100
1.213673073e-99
1.743713059e-99
1.81036314e-99
2.609129809e-99
3.775569854e-99
5.721029265e-99
9.194244383e-99
1.556213377e-98
2.755433365e-98
5.099911415e-98
9.878079971e-98
1.987916354e-97
4.183725439e-97
9.573595905e-97
2.143733575e-96
0
1.029589646e-88
3.422795981e-84
1.53717823e-82
3.357380803e-83
6.627353336e-85
1.469044818e-84
2.090622201e-84
2.870923075e-81
5.105244309e-79
1.569316579e-75
4.997931367e-71
2.036119083e-68
1.091046853e-66
4.273351474e-66
1.997746494e-44
1.848450959e-41
1.263238572e-39
1.184189228e-42
0
7.976942394e-05
0.01388520524
0.1089813422
2.89997492e-94
3.367722648e-94
4.266899099e-94
6.033374223e-94
6.192631853e-94
8.772610999e-94
1.244595285e-93
1.842126664e-93
2.88078397e-93
4.732103981e-93
8.114214117e-93
1.451204017e-92
2.709368919e-92
5.242934962e-92
1.058818993e-91
2.312463471e-91
4.958633375e-91
1.157170546e-90
9.395251912e-91
1.795223765e-82
3.501713611e-79
2.220133872e-78
5.448475627e-80
1.018410579e-79
9.597964248e-80
1.606211738e-79
6.574599973e-78
6.56994565e-78
3.662120458e-70
6.326089283e-67
2.177142247e-65
3.004022084e-64
1.861769408e-43
5.96470634e-40
2.289166993e-38
1.429732692e-42
3.166956394e-10
8.686495925e-05
0.01399412557
0.1092839936
1.009483981e-88
1.16704501e-88
1.4655165e-88
2.038328277e-88
2.070665445e-88
2.882043892e-88
4.008238792e-88
5.794518698e-88
8.817323661e-88
1.405475673e-87
2.333504291e-87
4.031732476e-87
7.253160377e-87
1.349175962e-86
2.613475972e-86
5.450672585e-86
1.113778059e-85
2.480521138e-85
5.661343826e-85
4.633075408e-85
1.367849339e-77
2.500122788e-75
3.86055715e-75
6.092991415e-75
5.183534125e-75
3.148928901e-75
1.338654528e-75
6.617488255e-78
3.307250115e-69
2.866124683e-66
4.700539492e-65
6.043062533e-65
9.393555718e-43
2.123893739e-39
5.451875476e-38
4.6829201e-41
9.977268326e-10
9.400125997e-05
0.01407130429
0.1096072773
3.441277015e-83
3.958083837e-83
4.9247995e-83
6.733991027e-83
6.778587541e-83
9.265840013e-83
1.263099637e-82
1.783415176e-82
2.640504044e-82
4.083934966e-82
6.564329496e-82
1.095415801e-81
1.898406364e-81
3.39337867e-81
6.302519444e-81
1.254665025e-80
2.445591361e-80
5.170904185e-80
1.125658597e-79
2.694817325e-79
2.224356236e-79
9.192220958e-74
5.117485388e-71
3.013509473e-70
2.358848821e-70
1.356653211e-70
5.610745202e-71
2.849466415e-72
6.354091898e-69
1.957076725e-66
2.360365161e-65
1.286100598e-66
5.508776365e-43
9.969938474e-40
2.419525121e-38
2.016537809e-38
1.976488462e-09
0.0001005635024
0.01411912106
0.1099453523
1.150515483e-77
1.315725572e-77
1.621592418e-77
2.178708384e-77
2.175792758e-77
2.919731055e-77
3.900753525e-77
5.37899864e-77
7.749038857e-77
1.162841087e-76
1.809280469e-76
2.915550184e-76
4.866318501e-76
8.356592453e-76
1.487607578e-75
2.825514877e-75
5.251953237e-75
1.055401398e-74
2.176568261e-74
4.94487403e-74
1.222309841e-73
2.961912138e-73
2.350658569e-68
2.954071923e-66
8.400780926e-66
4.742891037e-66
1.964857422e-66
1.032347486e-67
2.149678701e-66
2.552243526e-65
2.4589199e-66
0
5.455161443e-44
6.745746348e-41
1.760814942e-39
3.307757765e-36
3.160401287e-09
0.0001058712408
0.01411672259
0.1102941513
3.7777843e-72
4.292859072e-72
5.239237242e-72
6.91322825e-72
6.857741162e-72
9.030678788e-72
1.182336314e-71
1.592319207e-71
2.232023128e-71
3.249694778e-71
4.894041109e-71
7.614627186e-71
1.223812132e-70
2.018528075e-70
3.443010399e-70
6.237009089e-70
1.105200434e-69
2.109576812e-69
4.128376997e-69
8.849092012e-69
2.061727436e-68
4.705551493e-68
7.243113139e-67
1.563832205e-63
6.245629241e-62
1.209059831e-61
5.315147773e-62
2.760856655e-63
1.064285068e-62
9.181099073e-62
8.318852666e-69
1.821321829e-49
4.118576047e-45
3.929494515e-43
3.483170489e-54
5.717243896e-35
4.348264385e-09
0.0001092321727
0.01408438674
0.1106485534
1.219971418e-66