/*--------------------------------*- C++ -*----------------------------------*\
| =========                 |                                                 |
| \\      /  F ield         | OpenFOAM: The Open Source CFD Toolbox           |
|  \\    /   O peration     | Version:  v1912                                 |
|   \\  /    A nd           | Website:  www.openfoam.com                      |
|    \\/     M anipulation  |                                                 |
\*---------------------------------------------------------------------------*/
FoamFile
{
    version     2.0;
    format      ascii;
    class       volScalarField;
    location    "0.3";
    object      iDmdt.gasAndLiquid;
}
// * * * * * * * * * * * * * * * * * * * * * * * * * * * * * * * * * * * * * //

dimensions      [1 -3 -1 0 0 0 0];


internalField   nonuniform List<scalar> 
4800
(
5.77947454e-225
3.452718795e-225
3.44414639e-225
6.484016455e-225
5.075319004e-221
1.038812339e-216
1.730392648e-212
2.407259384e-208
2.855395072e-204
2.927823665e-200
2.639914987e-196
2.11532812e-192
1.520164285e-188
9.880681644e-185
5.852038191e-181
3.17732641e-177
1.592763883e-173
7.377191518e-170
3.162063494e-166
1.26222399e-162
4.667307307e-159
1.608807932e-155
5.155786319e-152
3.686631517e-149
3.234737447e-148
3.815944409e-143
8.029162074e-144
7.347206727e-144
1.455514315e-104
8.436057993e-105
1.234265699e-118
4.061647244e-77
6.033476408e-76
6.084387441e-76
5.965902258e-61
6.833972694e-77
1.258168945e-48
1.215597044e-63
-0.0003443690491
0.1342307024
4.271337091e-221
2.539361772e-221
2.524704475e-221
3.318969913e-221
1.71927797e-219
3.489924578e-215
5.958757907e-211
8.493424151e-207
1.037699638e-202
1.100433277e-198
1.026635963e-194
8.525802963e-191
6.371755998e-187
4.314483156e-183
2.666243125e-179
1.511867822e-175
7.888584135e-172
3.795166473e-168
1.685926897e-164
6.92329567e-161
2.621278298e-157
9.202144428e-154
2.916351315e-150
5.84801752e-148
2.998794756e-154
6.878098083e-138
1.321361278e-138
4.184307031e-141
8.351998616e-124
1.069162782e-99
2.333856534e-119
3.196454253e-74
0
5.479752457e-60
2.849917589e-58
2.350504052e-76
2.292689366e-45
9.720860256e-64
-0.0009666033188
0.2322794419
1.319090841e-217
7.819909601e-218
7.753075164e-218
1.012609202e-217
2.118806276e-217
1.614996469e-213
2.744640507e-209
3.892356287e-205
4.716588545e-201
4.954094481e-197
4.569903607e-193
3.743921064e-189
2.753003686e-185
1.829497431e-181
1.105905259e-177
6.106912755e-174
3.085076004e-170
1.425266007e-166
6.001933541e-163
2.292064868e-159
7.817800432e-156
2.353038254e-152
5.276180164e-149
3.884767919e-146
2.470883255e-155
2.374190824e-133
4.696301221e-134
3.646469581e-136
0
9.273679852e-95
2.997212789e-114
8.796021775e-73
0
3.07312761e-56
1.098981966e-55
0
1.902081581e-43
3.816001666e-63
-0.001641360335
0.3073057382
2.669116643e-214
1.579595862e-214
1.56221356e-214
2.030692693e-214
2.687346387e-214
3.824772113e-212
6.433840494e-208
9.17826075e-204
1.115078813e-199
1.178477337e-195
1.092999116e-191
8.990840701e-188
6.621321602e-184
4.396089582e-180
2.6436214e-176
1.443094064e-172
7.145237523e-169
3.195199437e-165
1.276904041e-161
4.484982643e-158
1.322864309e-154
3.002655531e-151
4.133257671e-149
7.218239129e-144
1.674049259e-155
4.604388466e-130
6.442840665e-131
1.363664594e-132
0
3.35199656e-91
2.797512841e-110
1.543268153e-72
2.065911486e-92
5.725990823e-54
1.963491092e-54
7.672360937e-65
1.771936057e-42
4.260420132e-63
-0.002190523464
0.3606348833
3.954220241e-211
2.337784756e-211
2.306474427e-211
2.982978916e-211
3.884905084e-211
1.67383371e-210
1.796128028e-206
2.551004327e-202
3.077855445e-198
3.223322598e-194
2.949083809e-190
2.384685754e-186
1.720089557e-182
1.114232799e-178
6.511452965e-175
3.439940897e-171
1.641357823e-167
7.039035383e-164
2.685497357e-160
8.962467526e-157
2.495142534e-153
5.29401444e-150
1.080197058e-151
1.735301014e-139
2.498360021e-155
4.605096435e-127
1.001689122e-127
6.544925791e-129
6.637117628e-148
5.971815527e-89
6.114920983e-108
1.529481284e-72
1.729491157e-91
8.624178912e-53
1.69492079e-71
6.6259854e-46
2.413189194e-42
2.545270927e-65
-0.003018374318
0.3949856699
4.583052577e-208
2.707890998e-208
2.664629911e-208
3.426745126e-208
4.418335487e-208
7.108640419e-208
3.027239041e-205
4.119777258e-201
4.782930249e-197
4.814020965e-193
4.226683822e-189
3.272891036e-185
2.255676472e-181
1.392372432e-177
7.731437892e-174
3.869590158e-170
1.74423132e-166
7.047790437e-163
2.527745695e-159
7.917896839e-156
2.067517101e-152
4.117538012e-149
1.055473671e-151
6.847345952e-137
7.964481974e-155
9.664139663e-126
1.620088612e-122
4.485118781e-124
1.003815347e-143
2.99007752e-87
3.133203963e-106
1.488570875e-72
0
1.712114894e-52
2.430719623e-62
1.197776826e-44
2.408765334e-42
1.036519454e-64
-0.003369425222
0.4184407444
4.332645903e-205
2.558439711e-205
2.509798068e-205
3.206860399e-205
4.091713223e-205
6.321534944e-205
4.484014178e-204
3.799289245e-200
3.851933878e-196
3.387274135e-192
2.599083495e-188
1.749186458e-184
1.040487223e-180
5.455848084e-177
2.512668826e-173
1.008693176e-169
3.479165263e-166
1.006292372e-162
2.346275328e-159
4.153887702e-156
5.096080239e-153
5.970446537e-150
2.622462279e-151
6.604055577e-136
5.873788562e-137
0
1.434661855e-117
3.106864702e-119
0
2.276188516e-84
6.491621416e-104
1.127633751e-72
0
1.698095493e-52
0
2.215574978e-44
2.29659931e-42
0
-0.004288181808
0.436663068
3.438489587e-202
2.028548364e-202
1.9824187e-202
2.514271184e-202
3.172621969e-202
4.825126989e-202
1.122430357e-201
1.961916201e-198
1.935114356e-194
1.651959727e-190
1.226792145e-186
7.966338536e-183
4.558307183e-179
2.291773267e-175
1.008440494e-171
3.851797086e-168
1.256969012e-164
3.408361413e-161
7.308901001e-158
1.125486026e-154
9.087709384e-152
1.036692007e-151
4.514054038e-151
1.180124908e-136
2.211836518e-132
1.661180618e-152
1.250354225e-114
5.12737136e-116
0
1.99289416e-82
0
6.24698563e-72
0
1.681732085e-52
2.387368643e-62
2.130838841e-44
1.349637552e-42
2.355312328e-67
-0.005724045894
0.454408667
2.339496576e-199
1.377916304e-199
1.340220619e-199
1.685380616e-199
2.101925435e-199
3.145734723e-199
6.080969714e-199
7.320211596e-197
6.924270022e-193
5.744049874e-189
4.133450552e-185
2.593755794e-181
1.430406223e-177
6.913800043e-174
2.917774356e-170
1.066545117e-166
3.324699416e-163
8.601016422e-160
1.759854809e-156
2.594220327e-153
1.971648745e-150
1.782278988e-151
1.440388668e-143
2.79267931e-148
1.110439794e-128
5.348573955e-146
2.205199386e-113
2.430567977e-112
1.956515151e-131
1.977235133e-81
0
1.289233664e-71
1.712207242e-91
1.326037729e-52
9.655805141e-71
1.270487786e-44
3.28398754e-43
1.728538124e-65
-0.006498257353
0.4713787568
1.386480361e-196
8.143922547e-197
7.875170853e-197
9.808336239e-197
1.208302893e-196
1.778511511e-196
3.296076839e-196
2.448470383e-195
1.674871257e-191
1.350124422e-187
9.415606277e-184
5.710648843e-180
3.036274786e-176
1.411547471e-172
5.717402857e-169
2.002282926e-165
5.972933919e-162
1.478682761e-158
2.90266511e-155
4.139505472e-152
2.953778954e-149
2.172341556e-151
2.048426579e-141
1.179162215e-147
1.591272222e-126
9.355481131e-128
0
1.97020972e-107
0
3.346100434e-81
7.027995562e-100
1.277940859e-71
0
5.148379633e-53
2.344144854e-62
3.114288744e-45
2.260317526e-44
6.669771242e-63
-0.008541797301
0.4871746152
7.245630815e-194
4.238656933e-194
4.070240857e-194
5.015207472e-194
6.099738652e-194
8.826437125e-194
1.584462425e-193
3.370331888e-193
2.482260742e-190
1.940025589e-186
1.31166343e-182
7.693688409e-179
3.94726548e-175
1.767303107e-171
6.883842834e-168
2.316747669e-164
6.645881889e-161
1.587439407e-157
3.033335706e-154
4.29717335e-151
2.853175429e-148
2.8115527e-151
1.459259763e-140
2.7411505e-148
1.153100699e-125
1.171678301e-126
0
1.407971195e-102
3.27291524e-121
3.31601267e-81
0
9.387983724e-72
0
6.579213162e-54
1.818961338e-71
2.228344384e-46
3.070063155e-46
6.395352498e-70
-0.011049299
0.5013951483
3.371286458e-191
1.961138751e-191
1.867916332e-191
2.274702626e-191
2.730355485e-191
3.883191374e-191
6.761318229e-191
1.288523277e-190
1.996077297e-189
1.320777102e-185
8.672905113e-182
4.933611268e-178
2.452481244e-174
1.063791222e-170
4.01982816e-167
1.317656382e-163
3.711554533e-160
8.843550387e-157
1.735707002e-153
2.653470523e-150
1.59105203e-147
7.278442655e-151
1.450997147e-140
1.157528868e-147
1.148016927e-125
1.866993705e-126
0
4.11403983e-98
0
3.148993312e-81
3.846237151e-100
1.857414734e-72
1.181513031e-74
1.603023588e-55
2.300975274e-62
2.991028444e-48
7.182788595e-49
0
-0.01384687665
0.5133814742
1.407291486e-188
8.12743508e-189
7.669923087e-189
9.223646556e-189
1.092362867e-188
1.527003924e-188
2.581629815e-188
4.78112925e-188
9.660357138e-188
8.51074906e-186
5.692076449e-182
3.456090488e-178
1.879604268e-174
9.172472885e-171
4.03122387e-167
1.598833992e-163
5.679928808e-160
1.779988252e-156
4.75983691e-153
1.003083009e-149
4.947312512e-147
3.046358014e-150
1.435655956e-140
2.690426085e-148
1.136261168e-125
1.706340283e-126
6.479086119e-146
3.832457165e-95
2.030859204e-114
1.829600416e-81
5.838033461e-100
4.795266041e-74
8.674089912e-64
7.449893706e-71
4.811911991e-53
5.047209291e-51
3.846156292e-52
2.251527604e-71
-0.01692601656
0.5228257654
5.302439272e-186
3.03548718e-186
2.835753949e-186
3.36580389e-186
3.932825323e-186
5.405246883e-186
8.884148783e-186
1.602580979e-185
3.120012995e-185
1.027222528e-184
2.650814565e-181
1.628121095e-177
8.910118286e-174
4.347398817e-170
1.896948267e-166
7.412384642e-163
2.574312056e-159
7.832350141e-156
2.02209479e-152
4.103058931e-149
1.619010143e-146
2.094098123e-147
7.688623797e-141
1.135922896e-147
6.128023274e-126
8.72947369e-127
4.103717835e-146
1.894965088e-93
8.557870304e-113
4.607932765e-82
5.447143532e-83
0
7.261965767e-64
0
3.723822614e-53
7.263070321e-54
1.035139533e-55
0
-0.02022954867
0.5302278415
1.812081332e-183
1.02693409e-183
9.491385187e-184
1.111676267e-183
1.281822389e-183
1.733210076e-183
2.773400694e-183
4.877634907e-183
9.258051355e-183
1.875157394e-182
2.888570985e-181
1.329994425e-177
6.7496011e-174
3.189600858e-170
1.374608056e-166
5.313494451e-163
1.820483046e-159
5.468019569e-156
1.404885929e-152
2.942070539e-149
2.181277493e-146
2.840797927e-144
1.283515177e-141
2.639768233e-148
1.058066951e-126
1.489988883e-127
0
8.298123123e-93
4.396221328e-112
1.758920802e-82
4.022843925e-83
0
2.062932993e-64
3.061237579e-83
7.535261974e-54
5.847014851e-55
2.231130085e-57
0
-0.02373460217
0.5365833633
5.638908835e-181
3.160715543e-181
2.889634737e-181
3.340647808e-181
3.802834057e-181
5.063638047e-181
7.900742562e-181
1.356222003e-180
2.512499851e-180
4.95508853e-180
1.303622813e-179
8.480943851e-177
2.140528538e-173
4.624135909e-170
8.298920339e-167
1.399358598e-163
2.485426742e-160
5.543798884e-157
1.530302619e-153
4.616292277e-150
1.695869589e-146
2.184332754e-143
4.008688961e-143
4.019230975e-146
3.606729484e-128
4.981290185e-129
0
8.244562207e-93
0
1.657828923e-82
2.370815405e-83
2.689091173e-102
1.172419954e-65
1.049855056e-84
2.245537057e-55
1.559786487e-56
3.21703598e-59
0
-0.02743408589
0.5430371396
1.603043058e-178
8.884854308e-179
8.037673246e-179
9.178757927e-179
1.032269021e-178
1.355271289e-178
2.065334138e-178
3.464007624e-178
6.268368985e-178
1.206488891e-177
2.503275838e-177
2.721782951e-175
6.833652154e-172
1.450547402e-168
2.070550284e-165
2.728071421e-162
2.752507321e-159
1.984395344e-156
9.257357944e-154
4.028579421e-151
9.705167576e-147
2.165035719e-143
1.499461302e-159
4.271762379e-128
7.724500935e-129
3.569024132e-129
0
7.226648668e-93
9.262026622e-112
1.528733263e-82
5.119562661e-84
0
8.526165675e-68
0
6.146988076e-58
5.091967545e-59
9.989710139e-78
0
-0.03130954723
0.5494737218
4.175162122e-176
2.289590691e-176
2.051545423e-176
2.317106618e-176
2.576815329e-176
3.340514933e-176
4.979819563e-176
8.167267146e-176
1.444066316e-175
2.711550566e-175
5.304015303e-175
8.866092047e-174
2.450103287e-170
5.801780516e-167
5.07129696e-164
6.371969084e-161
6.053604006e-158
3.982416963e-155
1.497496086e-152
2.334123998e-150
1.046761627e-147
2.14512899e-143
3.670506948e-162
5.980310377e-124
4.530441378e-125
8.903658896e-127
0
2.977962525e-93
0
9.498819308e-83
0
5.566664629e-72
3.859024661e-71
0
1.055695072e-61
1.177433278e-62
0
2.871089552e-06
-0.03530075249
0.5551186785
9.990369365e-174
5.429762778e-174
4.826702432e-174
5.400664054e-174
5.944902486e-174
7.620064003e-174
1.112567091e-173
1.784770277e-173
3.082103963e-173
5.638663889e-173
1.068114906e-172
4.723420317e-172
1.416910816e-168
3.879700277e-165
1.078461064e-162
1.289649337e-159
1.16001765e-156
7.046918892e-154
2.259888983e-151
2.427831346e-149
1.033719992e-147
1.587390902e-143
2.055229482e-162
2.44339561e-121
1.469841783e-122
2.720982988e-125
0
3.463047213e-94
1.681688133e-113
2.442010535e-83
2.105436278e-102
2.12666827e-72
2.393348472e-88
1.268812798e-66
1.526691621e-65
2.424299545e-66
0
7.719436836e-06
-0.03933134533
0.5593291745
2.202818449e-171
1.190036359e-171
1.051758501e-171
1.167939624e-171
1.273637791e-171
1.615623847e-171
2.311662268e-171
3.625276895e-171
6.106370597e-171
1.086113947e-170
1.994938646e-170
5.377221952e-170
1.300148577e-166
3.651567938e-163
2.032955914e-161
2.237392055e-158
1.911418759e-155
1.074626651e-152
2.894107974e-150
1.856013232e-148
8.737695216e-147
4.803321638e-144
3.85932243e-163
4.968846741e-120
2.969110299e-121
8.210242543e-124
1.147808301e-119
6.95081797e-96
1.430872367e-114
1.542502915e-84
0
1.267464274e-73
4.538795924e-80
3.66691642e-67
1.086005158e-66
1.671939343e-67
0
1.138482271e-05
-0.0433888947
0.563483719
4.492098446e-169
2.422004619e-169
2.13325418e-169
2.35433009e-169
2.544367142e-169
3.194244471e-169
4.477169551e-169
6.853583847e-169
1.12342647e-168
1.937157566e-168
3.441809484e-168
7.835535186e-168
1.309509967e-164
3.561968979e-161
3.975382753e-160
3.276780005e-157
2.666003201e-154
1.389903706e-151
3.081588634e-149
8.662824667e-148
4.937327836e-146
2.088584196e-145
2.092623899e-162
9.616953365e-120
7.961085022e-121
3.51676887e-126
1.271883928e-100
6.723461128e-99
2.868950213e-97
1.191921779e-86
0
6.76401536e-76
2.346750873e-88
1.351186433e-68
5.650244117e-68
8.128338779e-69
0
1.403219246e-05
-0.04751286808
0.569761329
8.511490589e-167
4.601420762e-167
4.046582308e-167
4.439918496e-167
4.752952017e-167
5.897977523e-167
8.085957e-167
1.205172817e-166
1.916595548e-166
3.193712212e-166
5.474242107e-166
1.122639794e-165
1.22889347e-162
3.242994814e-159
1.312975806e-158
3.966189777e-156
3.074996145e-153
1.488744509e-150
2.649582339e-148
9.262611021e-148
1.766027285e-142
3.12223659e-142
0
9.51448129e-120
6.522705843e-121
3.454591253e-140
5.299038918e-101
3.220681464e-103
6.934090348e-91
0
1.428754419e-81
9.538901232e-80
4.44744081e-80
3.786360744e-71
7.111535847e-70
9.50673272e-71
8.677036645e-104
1.569710175e-05
-0.05175868523
0.5795026617
1.507046724e-164
8.201432471e-165
7.204403138e-165
7.846863716e-165
8.307304019e-165
1.01618787e-164
1.359149471e-164
1.965949058e-164
3.022854779e-164
4.853358536e-164
8.010651167e-164
1.510350016e-163
1.033438532e-160
2.699041852e-157
8.027535845e-157
3.917303857e-155
2.839877696e-152
1.274915534e-149
1.75386778e-147
5.212060257e-148
6.808473134e-139
1.949720559e-139
4.266029507e-159
5.834519426e-120
1.988405281e-121
3.445531277e-126
3.53529769e-102
3.273640282e-122
2.951797033e-91
0
5.052108912e-82
4.813726585e-89
2.086959259e-75
5.758074126e-75
1.161862958e-72
1.430909101e-73
3.998832053e-104
1.625829717e-05
-0.05638458626
0.606626749
2.508998895e-162
1.376176065e-162
1.205060086e-162
1.298026481e-162
1.355256499e-162
1.627710952e-162
2.116833064e-162
2.961134564e-162
4.388416504e-162
6.776084149e-162
1.077046335e-161
1.895824757e-161
7.683224849e-159
2.045107092e-155
5.510709009e-155
3.62493196e-154
2.031594941e-151
8.352717978e-149
8.337649443e-147
5.158108224e-148
2.005571786e-136
3.655359953e-138
0
6.200561125e-119
1.022639158e-133
7.138247596e-108
2.05336638e-104
6.787725976e-117
2.490250257e-92
3.673050452e-111
2.471168125e-83
3.167756782e-89
4.030416533e-76
1.092648649e-77
1.593587261e-76
1.789114408e-77
6.910109969e-103
1.623023373e-05
-0.06257233304
0.6353404902
3.946932772e-160
2.173875149e-160
1.888069148e-160
1.999511828e-160
2.051467061e-160
2.407819034e-160
3.034259519e-160
4.092669969e-160
5.835639671e-160
8.67095108e-160
1.33213393e-159
2.224867744e-159
4.987644661e-157
1.408179588e-153
3.424882565e-153
6.593310703e-153
1.151382125e-150
4.099804855e-148
1.936288031e-146
5.104612509e-148
5.132520369e-135
3.533606388e-138
3.234072888e-123
1.563154297e-118
1.683482538e-124
3.580826949e-108
0
8.381775061e-99
2.18919435e-94
2.737805311e-99
9.021497582e-86
4.714141946e-89
7.448307984e-78
1.147018442e-79
6.500415842e-81
6.261299622e-82
0
1.432938745e-05
-0.06753013779
0.579538434
5.870552065e-158
3.215079176e-158
2.748719822e-158
2.841770098e-158
2.853961083e-158
3.258866036e-158
3.96909855e-158
5.15626949e-158
7.083739737e-158
1.018382693e-157
1.526501748e-157
2.463493287e-157
2.778651773e-155
8.809132539e-152
1.847090649e-151
2.831263775e-151
7.000443524e-150
1.761165181e-147
4.687781928e-147
5.05081559e-148
1.331273996e-134
3.687299784e-137
8.183037632e-129
5.303622768e-119
0
2.54393736e-109
2.20851227e-113
1.86776366e-98
1.155873491e-97
1.366501917e-91
8.017390065e-98
1.054976793e-84
8.427120403e-81
1.588623e-82
3.080391215e-85
7.716524811e-86
5.816185315e-102
1.038696099e-05
-0.07186124183
0.5548511389
8.197939985e-156
4.397939123e-156
3.668742608e-156
3.677344344e-156
3.603079876e-156
3.991227676e-156
4.698125775e-156
5.897169685e-156
7.869479427e-156
1.109771503e-155
1.648823307e-155
2.613909568e-155
1.29335962e-153
5.032532758e-150
8.792169331e-150
1.4916038e-149
8.659932126e-149
8.852797691e-147
1.282851648e-147
8.948556548e-148
1.315464328e-134
1.325929599e-136
4.230300611e-123
1.133455069e-125
3.539661412e-113
1.574145016e-111
2.941827542e-129
3.363167316e-99
8.752948339e-102
4.929263467e-92
7.839070011e-98
7.082294124e-85
4.797071961e-85
1.270704516e-86
5.485881357e-104
6.865044782e-81
0
5.591695829e-06
-0.0759274304
0.5738588572
1.056655426e-153
5.45839602e-154
4.407203096e-154
4.263129088e-154
4.069363923e-154
4.379383262e-154
5.014155159e-154
6.159954911e-154
8.150137651e-154
1.1539255e-153
1.724275475e-153
2.691721798e-153
4.80407224e-152
2.651901226e-148
4.290448013e-148
8.905560097e-148
2.292845744e-147
2.774564494e-146
1.265543636e-147
2.432217319e-139
3.081175881e-135
1.521272957e-138
1.372103204e-123
1.173183726e-125
4.695798997e-113
2.441552981e-114
6.718170916e-117
3.113434447e-100
9.814254817e-102
2.7213424e-93
7.846761138e-98
5.653734043e-86
7.407143112e-86
2.136604967e-84
0
7.424473007e-76
0
-5.900385474e-07
-0.07988913011
0.5527813672
1.222451984e-151
5.989481998e-152
4.660592326e-152
4.358715425e-152
4.067617847e-152
4.307032073e-152
4.900688162e-152
6.077742215e-152
8.243430593e-152
1.192844843e-151
1.77647952e-151
2.659910127e-151
1.298698403e-150
1.26957472e-146
3.010095928e-146
5.445841065e-146
5.759439243e-146
7.943357766e-146
2.84988448e-147
1.424258303e-138
1.259185021e-134
2.863629246e-138
8.046067005e-125
6.508014403e-130
3.254218483e-113
3.211983626e-113
9.211756896e-128
4.34865454e-97
4.887340217e-98
3.18352009e-95
7.670592636e-98
7.759639924e-98
7.457977299e-82
1.594999278e-79
7.85392635e-99
6.760908643e-71
1.505430552e-90
-7.639508028e-06
-0.08392526599
0.591177843
1.2200618e-149
5.631891227e-150
4.251711036e-150
3.923614003e-150
3.640673866e-150
3.946713385e-150
4.685392542e-150
6.137343141e-150
8.665222568e-150
1.246215786e-149
1.754554224e-149
2.386847084e-149
1.997947409e-149
5.978431084e-145
5.94215117e-144
2.302791534e-143
3.845865511e-142
4.331988855e-142
1.045250678e-142
3.835717213e-152
4.622144788e-129
7.786154745e-127
2.71419758e-126
6.647772754e-130
1.184830698e-112
1.749382019e-110
1.551411383e-114
1.244405745e-95
1.307531548e-93
3.980527995e-90
1.902089612e-88
7.584571186e-98
2.638944392e-76
7.648127669e-75
3.710268352e-94
5.120405095e-66
1.101091223e-85
-1.587541886e-05
-0.08782395225
0.5675237056
9.956239886e-148
4.420884443e-148
3.37796585e-148
3.305589124e-148
3.194148906e-148
3.83654284e-148
5.02476972e-148
6.990788182e-148
9.655461048e-148
1.244214667e-147
1.50392325e-147
1.729109052e-147
1.985621153e-149
3.528579156e-140
1.79065444e-138
6.051029645e-138
6.626760084e-137
6.55519192e-137
2.462810907e-137
1.161723303e-152
1.125458064e-123
1.643939535e-121
2.172218428e-121
6.365596801e-130
1.160275172e-110
1.176214093e-110
2.847956795e-105
0
1.626180952e-88
8.626206536e-85
4.119871646e-83
7.589540656e-98
4.941835208e-73
5.053763429e-71
0
3.176938114e-61
6.248105145e-82
-2.440675342e-05
-0.09206631541
0.5702711136
6.312035518e-146
3.099252737e-146
2.779156624e-146
3.333184153e-146
3.527341028e-146
4.812152128e-146
6.579313384e-146
8.548401027e-146
9.64366097e-146
9.324844689e-146
8.552439508e-146
7.702559889e-146
1.962976954e-149
8.560089226e-136
5.168781351e-133
1.646503081e-132
1.009866586e-131
9.371174998e-132
6.337507088e-132
3.487905977e-153
2.50273514e-118
3.300366379e-116
2.513437972e-116
6.311579784e-130
1.078326425e-109
2.262952225e-110
8.719587063e-100
4.213466584e-114
1.634725838e-83
2.172620347e-79
7.424104515e-78
1.847398189e-91
1.770606805e-71
2.946549114e-68
1.397565291e-87
1.562162477e-56
6.080428222e-76
-3.406876748e-05
-0.09629747833
0.5743426368
3.790375417e-144
3.132774913e-144
3.866376986e-144
5.924201629e-144
6.894001625e-144
1.110950497e-143
1.864310085e-143
3.393843177e-143
6.764192963e-143
1.447495993e-142
3.286643131e-142
7.919980759e-142
2.592226713e-147
7.823681926e-132
1.220686274e-127
5.278946438e-127
1.331125672e-126
1.350423911e-126
1.76980684e-126
1.791753658e-146
4.95211021e-113
6.467212243e-111
2.580371831e-111
8.607335454e-131
8.947972906e-106
4.106551278e-110
2.053725079e-94
5.217855374e-114
1.156370059e-78
1.1284157e-73
1.125043e-72
3.758217604e-73
1.973411776e-83
1.042003979e-63
1.739222235e-83
5.926681011e-52
6.193638226e-72
-4.429773729e-05
-0.1013330165
0.5795874715
1.001611572e-138
1.180882162e-138
1.592183862e-138
2.518609622e-138
2.91272851e-138
4.681027003e-138
7.749866343e-138
1.38164989e-137
2.682471557e-137
5.577156104e-137
1.228468575e-136
2.86706009e-136
8.815738385e-137
3.44541397e-130
2.443560742e-123
3.315317363e-121
1.448875439e-121
2.254862412e-121
5.180766742e-121
0
2.75558463e-109
6.465631002e-106
1.935669602e-106
1.17923837e-115
4.852812062e-101
5.398640212e-96
3.55434771e-91
0
7.501538984e-75
9.959447061e-70
1.386706776e-67
4.715444765e-68
0
9.149490313e-59
0
4.293628005e-48
0
-5.572633353e-05
-0.106300842
0.5839095065
4.317538974e-133
5.089659572e-133
6.813845006e-133
1.064749737e-132
1.209567775e-132
1.915965624e-132
3.11266861e-132
5.422505339e-132
1.024925066e-131
2.070118126e-131
4.422566368e-131
9.995148253e-131
2.39721423e-130
1.852088961e-130
5.853673381e-121
9.418550779e-117
1.23274321e-116
5.170987804e-116
1.52743824e-115
0
1.721455305e-107
6.929872697e-103
7.227869543e-102
0
5.378048358e-96
9.698464686e-92
9.777006851e-90
0
2.52820303e-72
5.243625756e-68
1.816045019e-63
4.90360868e-63
0
5.78641712e-54
2.952669565e-50
2.373957568e-45
4.881660573e-65
-6.778607506e-05
-0.1121451018
0.5916020115
1.798044132e-127
2.118453299e-127
2.815675716e-127
4.344415456e-127
4.851138424e-127
7.571472672e-127
1.206924379e-126
2.054493439e-126
3.780317841e-126
7.416462545e-126
1.536478399e-125
3.360898883e-125
7.787719163e-125
1.894059264e-124
1.473010984e-124
9.270993994e-115
8.19489985e-112
1.641451811e-110
4.377872647e-110
1.161201293e-108
9.106499468e-109
1.502216698e-101
1.406566987e-98
1.749242425e-97
1.528729766e-92
2.534660999e-89
9.666489004e-90
1.169902381e-75
2.721686702e-71
3.004945899e-80
4.831611171e-61
4.377882047e-58
7.166556648e-71
2.811039378e-50
7.169907089e-47
2.33872845e-43
0
-8.093299545e-05
-0.1185541538
0.6013838385
7.248090452e-122
8.531058682e-122
1.125521503e-121
1.713882227e-121
1.88258993e-121
2.894133156e-121
4.526126354e-121
7.528251322e-121
1.348406724e-120
2.569160892e-120
5.160270629e-120
1.092304354e-119
2.442935647e-119
5.729664339e-119
1.083473391e-118
2.864816303e-119
1.349527944e-107
5.945846453e-105
1.185160126e-104
2.553053889e-103
5.734191737e-103
4.64344574e-103
2.351741779e-95
2.80568993e-92
7.518197175e-91
2.37096408e-88
9.606731642e-90
6.62940009e-75
4.258868931e-72
1.542284639e-80
4.958349609e-60
3.18849761e-54
1.844806565e-52
6.438987814e-48
3.11949351e-45
4.256552986e-41
2.453508862e-61
-9.442493397e-05
-0.1258216121
0.6145944998
2.83333277e-116
3.329750506e-116
4.359758529e-116
6.548442568e-116
7.081884062e-116
1.071942246e-115
1.644504754e-115
2.672533668e-115
4.659314571e-115
8.6204277e-115
1.678266772e-114
3.436717693e-114
7.417397142e-114
1.676005893e-113
3.978788203e-113
1.48734028e-119
3.013607279e-105
1.847351246e-100
3.014871413e-99
5.133404657e-98
9.81883232e-98
1.425455276e-98
1.882337451e-93
5.512313887e-89
1.465390688e-87
2.347448926e-88
2.344657373e-80
4.960584806e-76
4.423954202e-74
2.933957247e-80
1.286775471e-72
5.894654061e-52
1.095697388e-49
5.271840098e-46
3.994090323e-42
3.600832912e-38
1.495753342e-70
-0.0001087892578
-0.1327337952
0.629048862
1.075918929e-110
1.261788815e-110
1.639223364e-110
2.427293838e-110
2.586888244e-110
3.853750375e-110
5.798891565e-110
9.207171538e-110
1.562300352e-109
2.806351246e-109
5.294500433e-109
1.048549325e-108
2.183588036e-108
4.747114456e-108
1.084299706e-107
2.712521023e-107
2.153386433e-107
3.04327086e-98
7.158122727e-94
9.387412606e-93
1.524930587e-92
3.59515449e-93
1.535583432e-93
1.902226473e-87
5.13336768e-85
2.330649378e-88
4.014379322e-79
2.146039991e-75
5.000163223e-74
7.237019532e-75
3.048129932e-71
5.347940228e-51
1.146926894e-47
5.742376019e-44
4.692658614e-40
1.911401968e-36
1.521883764e-52
-0.0001244668014
-0.1398099778
0.6424235363
3.975557937e-105
4.649915955e-105
5.992228666e-105
8.742517423e-105
9.191237801e-105
1.347037685e-104
1.987823215e-104
3.083340848e-104
5.091748108e-104
8.87873489e-104
1.622881784e-103
3.10744126e-103
6.241760086e-103
1.305752465e-102
2.862310483e-102
6.857783776e-102
1.603502584e-101
1.855256377e-108
3.783904262e-90
1.555992514e-87
2.132390048e-87
4.658276262e-88
1.260882895e-89
4.455048262e-88
7.289840048e-84
4.400200305e-82
4.433574904e-82
1.866331965e-74
6.149308199e-72
8.763588259e-71
2.116622807e-69
0
9.713932917e-46
5.546539171e-42
1.161414201e-38
1.762071074e-35
9.046364962e-55
-0.0001415724033
-0.146432485
0.6544682851
1.431719622e-99
1.669107009e-99
2.133058272e-99
3.064566709e-99
3.181634728e-99
4.585307225e-99
6.634998148e-99
1.005345564e-98
1.615613113e-98
2.734435662e-98
4.841308107e-98
8.959967717e-98
1.735337497e-97
3.491994129e-97
7.348499612e-97
1.681382755e-96
3.764556436e-96
0
1.807572214e-88
6.00826016e-84
2.697878477e-82
5.891460571e-83
1.162733714e-84
2.57683196e-84
3.666322125e-84
5.033539906e-81
8.948671444e-79
2.750020901e-75
8.755750235e-71
3.565980125e-68
1.910242687e-66
7.479651111e-66
3.495594418e-44
3.233326251e-41
2.209256619e-39
2.084272046e-42
0
-0.0001604648963
-0.1528795587
0.665549968
5.033198867e-94
5.844995661e-94
7.405523876e-94
1.047121205e-93
1.0747385e-93
1.522456541e-93
2.159882679e-93
3.196722227e-93
4.998927242e-93
8.211042056e-93
1.407879216e-92
2.517788017e-92
4.700317791e-92
9.094908998e-92
1.836566041e-91
4.010666359e-91
8.599158679e-91
2.006498539e-90
1.628891865e-90
3.111996573e-82
6.069205291e-79
3.847286401e-78
9.439906494e-80
1.764109641e-79
1.662203879e-79
2.781010556e-79
1.13803665e-77
1.136915676e-77
6.335371142e-70
1.09406192e-66
3.764061023e-65
5.191992892e-64
3.21675634e-43
1.030229315e-39
3.953280175e-38
2.48788079e-42
5.640897894e-10
-0.0001876932111
-0.1585954674
0.6755199867
1.729912452e-88
1.999909777e-88
2.511361259e-88
3.492899856e-88
3.548241246e-88
4.938473093e-88
6.868029719e-88
9.928415218e-88
1.510708736e-87
2.407941383e-87
3.997669906e-87
6.90657429e-87
1.242417632e-86
2.310865873e-86
4.475964422e-86
9.334178206e-86
1.907119993e-85
4.246887945e-85
9.691492406e-85
7.930086863e-85
2.340874097e-77
4.277849578e-75
6.604368474e-75
1.042128193e-74
8.863753084e-75
5.383280578e-75
2.287897734e-75
1.130672104e-77
5.649086449e-69
4.894034337e-66
8.023716791e-65
1.031188825e-64
1.602374829e-42
3.62166959e-39
9.295647614e-38
8.056568963e-41
1.755928283e-09
-0.0002241239583
-0.1636126322
0.6840181882
5.821701907e-83
6.695970193e-83
8.331303068e-83
1.139175705e-82
1.146697799e-82
1.567414748e-82
2.136602789e-82
3.016638629e-82
4.466217203e-82
6.90734756e-82
1.110195741e-81
1.852515662e-81
3.210277302e-81
5.737896559e-81
1.065608796e-80
2.121146008e-80
4.134103729e-80
8.740046939e-80
1.902385129e-79
4.553649628e-79
3.75808603e-79
1.552772366e-73
8.642934572e-71
5.088455815e-70
3.982112209e-70
2.289668448e-70
9.46683999e-71
4.80638949e-72
1.071447027e-68
3.2989709e-66
3.977380297e-65
2.166389161e-66
9.275967825e-43
1.678128125e-39
4.072409579e-38
3.430159464e-38
3.434250666e-09
-0.0002574341262
-0.1674544709
0.6907130851
1.921132529e-77
2.196991926e-77
2.707702343e-77
3.637913908e-77
3.632978758e-77
4.875038676e-77
6.512855225e-77
8.980690886e-77
1.293716737e-76
1.941297996e-76
3.020337781e-76
4.866817405e-76
8.122633329e-76
1.394742309e-75
2.482663378e-75
4.715065979e-75
8.763293537e-75
1.760822521e-74
3.6309164e-74
8.247820432e-74
2.038443411e-73
4.93873224e-73
3.9187783e-68
4.923693172e-66
1.399873093e-65
7.901337935e-66
3.272397901e-66
1.718807215e-67
3.577915963e-66
4.246428269e-65
4.089621929e-66
0
9.065834286e-44
1.120577242e-40
2.925208559e-39
5.563458497e-36
5.417391541e-09
-0.0002831435837
-0.1698349409
0.69518998
6.225345424e-72
7.074101842e-72
8.63354305e-72
1.139190383e-71
1.130027434e-71
1.488054229e-71
1.948174345e-71
2.623633465e-71
3.677525768e-71
5.354034964e-71
8.062788524e-71
1.254418901e-70
2.01596029e-70
3.324850094e-70
5.670770505e-70
1.0271708e-69
1.819975726e-69
3.473547768e-69
6.796812416e-69
1.456688093e-68
3.393393786e-68
7.74356572e-68
1.19172113e-66
2.572460691e-63
1.027149108e-61
1.987888629e-61
8.736433408e-62
4.536532673e-63
1.74818139e-62
1.507505618e-61
1.365378079e-68
2.988092373e-49
6.754097773e-45
6.440910728e-43
5.710510298e-54
9.508822888e-35
7.347007696e-09
-0.0002956669567
-0.1709642697
0.6971655608
1.98363715e-66