/*--------------------------------*- C++ -*----------------------------------*\
| =========                 |                                                 |
| \\      /  F ield         | OpenFOAM: The Open Source CFD Toolbox           |
|  \\    /   O peration     | Version:  v1912                                 |
|   \\  /    A nd           | Website:  www.openfoam.com                      |
|    \\/     M anipulation  |                                                 |
\*---------------------------------------------------------------------------*/
FoamFile
{
    version     2.0;
    format      ascii;
    class       volScalarField;
    location    "0.3";
    object      k.gas_0;
}
// * * * * * * * * * * * * * * * * * * * * * * * * * * * * * * * * * * * * * //

dimensions      [0 2 -2 0 0 0 0];


internalField   nonuniform List<scalar> 
4800
(
3.014374514e-07
3.47598609e-07
3.652869642e-07
3.756104851e-07
3.828060885e-07
3.883639235e-07
3.929812607e-07
3.970437823e-07
4.007930591e-07
4.043971778e-07
4.079849112e-07
4.116641707e-07
4.155331272e-07
4.196876079e-07
4.242267391e-07
4.292577727e-07
4.349008144e-07
4.412939028e-07
4.485989445e-07
4.570089922e-07
4.667575223e-07
4.781305866e-07
4.914830663e-07
5.072608659e-07
5.26031767e-07
5.485290899e-07
5.757148134e-07
6.088727608e-07
6.497495309e-07
7.007735617e-07
7.65406357e-07
8.487260589e-07
9.584402852e-07
1.106684339e-06
1.314236838e-06
1.610446007e-06
2.089819785e-06
3.017253105e-06
1.873026583e-06
1.194596554e-05
8.77115837e-07
1.056763228e-06
1.128972378e-06
1.171284814e-06
1.200194539e-06
1.221649096e-06
1.23843471e-06
1.252061672e-06
1.263432365e-06
1.273125161e-06
1.281531066e-06
1.288925855e-06
1.295510876e-06
1.301437547e-06
1.306822707e-06
1.311758679e-06
1.316320072e-06
1.320568573e-06
1.324556414e-06
1.328329009e-06
1.331927041e-06
1.335388242e-06
1.338749024e-06
1.342046153e-06
1.345318562e-06
1.348609674e-06
1.351970408e-06
1.355463495e-06
1.359169963e-06
1.363199347e-06
1.367706609e-06
1.372921308e-06
1.379207368e-06
1.387011652e-06
1.400072584e-06
1.382963756e-06
1.695125013e-06
1.913006226e-06
8.786140025e-06
5.554829266e-05
8.313882927e-07
9.994754626e-07
1.06692434e-06
1.106455365e-06
1.133480499e-06
1.153547141e-06
1.169251464e-06
1.181999765e-06
1.192631786e-06
1.201685403e-06
1.209523954e-06
1.216403389e-06
1.222510267e-06
1.227984519e-06
1.232933741e-06
1.237442502e-06
1.241578658e-06
1.245397757e-06
1.248946223e-06
1.252263737e-06
1.255385118e-06
1.258341882e-06
1.26116367e-06
1.263879637e-06
1.26652005e-06
1.26911821e-06
1.271713077e-06
1.274353047e-06
1.277101739e-06
1.280047243e-06
1.283317515e-06
1.287106898e-06
1.291728005e-06
1.297609078e-06
1.306916539e-06
1.309220826e-06
1.372431131e-06
8.0108462e-07
1.023147288e-05
8.200366222e-05
8.340346436e-07
1.002762251e-06
1.07046309e-06
1.110138441e-06
1.137260042e-06
1.157397594e-06
1.173157776e-06
1.185952603e-06
1.196625265e-06
1.205715874e-06
1.21358932e-06
1.220502687e-06
1.226643424e-06
1.232152189e-06
1.237137208e-06
1.241683634e-06
1.24585989e-06
1.2497221e-06
1.253317298e-06
1.256685837e-06
1.259863288e-06
1.262882033e-06
1.265772711e-06
1.268565661e-06
1.271292529e-06
1.273988245e-06
1.276693642e-06
1.279459203e-06
1.282350639e-06
1.285457585e-06
1.288907542e-06
1.29288879e-06
1.297692419e-06
1.303694609e-06
1.312868243e-06
1.316653412e-06
1.292928133e-06
1.828298826e-06
7.30537008e-06
0.0001040524908
8.337848184e-07
1.002460662e-06
1.070136742e-06
1.109797687e-06
1.13690871e-06
1.157037625e-06
1.172790198e-06
1.185577935e-06
1.196243709e-06
1.20532742e-06
1.213193797e-06
1.220099802e-06
1.226232768e-06
1.231733256e-06
1.236709382e-06
1.241246189e-06
1.245411973e-06
1.249262707e-06
1.252845241e-06
1.2561997e-06
1.259361359e-06
1.262362214e-06
1.265232386e-06
1.268001508e-06
1.270700238e-06
1.27336208e-06
1.276025768e-06
1.278738572e-06
1.281561123e-06
1.284574694e-06
1.287892435e-06
1.29167701e-06
1.296168943e-06
1.301722777e-06
1.308861199e-06
1.321423764e-06
1.300035895e-06
1.007894009e-06
2.348099609e-05
0.000123891411
8.337201631e-07
1.002389847e-06
1.070058678e-06
1.109715552e-06
1.136823061e-06
1.156948694e-06
1.172698032e-06
1.185482475e-06
1.19614482e-06
1.205224911e-06
1.213087433e-06
1.219989302e-06
1.226117809e-06
1.231613467e-06
1.236584339e-06
1.241115404e-06
1.245274877e-06
1.249118633e-06
1.252693392e-06
1.256039108e-06
1.259190828e-06
1.262180239e-06
1.26503703e-06
1.26779023e-06
1.270469625e-06
1.273107444e-06
1.275740499e-06
1.278413093e-06
1.281181153e-06
1.284118269e-06
1.28732469e-06
1.290940874e-06
1.295167699e-06
1.300311118e-06
1.306257114e-06
1.326764036e-06
1.201196419e-06
1.100915225e-06
1.591301581e-05
0.000145085304
8.336455118e-07
1.00230679e-06
1.069966582e-06
1.109618454e-06
1.136721757e-06
1.156843544e-06
1.172589164e-06
1.185369872e-06
1.196028372e-06
1.205104438e-06
1.212962695e-06
1.219860008e-06
1.225983615e-06
1.23147397e-06
1.236439075e-06
1.24096383e-06
1.245116357e-06
1.248952413e-06
1.252518565e-06
1.255854564e-06
1.25899519e-06
1.261971768e-06
1.264813487e-06
1.26754868e-06
1.270206142e-06
1.272816666e-06
1.275414942e-06
1.278042075e-06
1.280749056e-06
1.283601707e-06
1.286687823e-06
1.290127613e-06
1.29408935e-06
1.298806483e-06
1.304570349e-06
1.318362972e-06
1.181565438e-06
1.678819719e-06
2.534370358e-05
0.0001704149071
8.335733527e-07
1.002227076e-06
1.069877322e-06
1.109524017e-06
1.136622953e-06
1.156740752e-06
1.172482523e-06
1.185259376e-06
1.195913918e-06
1.20498585e-06
1.212839736e-06
1.219732385e-06
1.225850979e-06
1.231335913e-06
1.236295118e-06
1.240813414e-06
1.24495882e-06
1.248786964e-06
1.252344247e-06
1.255670203e-06
1.258799321e-06
1.261762531e-06
1.264588488e-06
1.267304777e-06
1.269939145e-06
1.272520881e-06
1.27508249e-06
1.277661849e-06
1.2803051e-06
1.28307068e-06
1.286035017e-06
1.289300736e-06
1.293009148e-06
1.297341713e-06
1.303079347e-06
1.299180652e-06
1.453778527e-06
5.26563956e-06
3.97270658e-05
0.0001952150235
8.335030611e-07
1.002149914e-06
1.069790069e-06
1.109431392e-06
1.13652579e-06
1.156639453e-06
1.172377243e-06
1.18515012e-06
1.195800592e-06
1.204868282e-06
1.212717693e-06
1.219605574e-06
1.225719049e-06
1.231198449e-06
1.236151633e-06
1.240663332e-06
1.24480146e-06
1.248621506e-06
1.252169695e-06
1.25548533e-06
1.258602591e-06
1.261551995e-06
1.264361634e-06
1.267058316e-06
1.269668707e-06
1.27222057e-06
1.274744227e-06
1.277274392e-06
1.279852577e-06
1.28253037e-06
1.285374012e-06
1.288470953e-06
1.291939824e-06
1.295939296e-06
1.300786287e-06
1.308760091e-06
1.228975901e-06
1.625529927e-06
2.583919329e-05
0.0002204654629
8.334348402e-07
1.00207555e-06
1.069705121e-06
1.109340909e-06
1.136430625e-06
1.156540027e-06
1.172273726e-06
1.18504253e-06
1.195688842e-06
1.204752208e-06
1.212597065e-06
1.219480103e-06
1.225588384e-06
1.231062174e-06
1.236009255e-06
1.24051427e-06
1.244645017e-06
1.248456846e-06
1.251995797e-06
1.255300931e-06
1.258406113e-06
1.261341431e-06
1.264134401e-06
1.266811044e-06
1.269396941e-06
1.27191834e-06
1.274403433e-06
1.276883912e-06
1.279396954e-06
1.281987899e-06
1.28471393e-06
1.287649348e-06
1.290893524e-06
1.294582426e-06
1.298847838e-06
1.307994343e-06
1.247102237e-06
5.614958482e-07
4.203208601e-05
0.0002466939432
8.333688398e-07
1.002004164e-06
1.069622706e-06
1.109252824e-06
1.136337739e-06
1.15644278e-06
1.172172301e-06
1.184936956e-06
1.195579042e-06
1.204638025e-06
1.212478276e-06
1.219356423e-06
1.225459466e-06
1.230927603e-06
1.235868541e-06
1.240366826e-06
1.244490146e-06
1.248293701e-06
1.251823346e-06
1.255117897e-06
1.258210893e-06
1.261131994e-06
1.263908138e-06
1.266564561e-06
1.269125773e-06
1.271616552e-06
1.274063053e-06
1.276494119e-06
1.278942933e-06
1.281449185e-06
1.284062035e-06
1.28684432e-06
1.289878787e-06
1.293279792e-06
1.297031613e-06
1.308715104e-06
1.185531294e-06
7.702792744e-07
5.908185001e-05
0.0002730101945
8.333052125e-07
1.001935935e-06
1.069543054e-06
1.1091674e-06
1.136247423e-06
1.156348026e-06
1.172073306e-06
1.18483376e-06
1.195471577e-06
1.204526143e-06
1.212361761e-06
1.219234997e-06
1.225332789e-06
1.230795265e-06
1.235730055e-06
1.240221613e-06
1.244337509e-06
1.248132797e-06
1.251653143e-06
1.254937118e-06
1.258017937e-06
1.260924834e-06
1.263684172e-06
1.266320421e-06
1.268857055e-06
1.271317443e-06
1.273725815e-06
1.276108371e-06
1.278494644e-06
1.280919255e-06
1.283424279e-06
1.286062549e-06
1.288902418e-06
1.292039343e-06
1.295310575e-06
1.310877292e-06
1.072277632e-06
1.710306955e-06
7.632705014e-05
0.0002987385861
8.332441089e-07
1.001871041e-06
1.069466395e-06
1.1090849e-06
1.136159966e-06
1.156256079e-06
1.17197708e-06
1.184733303e-06
1.195366832e-06
1.204416972e-06
1.212247956e-06
1.219116289e-06
1.225208846e-06
1.230665688e-06
1.235594366e-06
1.24007924e-06
1.244187767e-06
1.247974854e-06
1.251485979e-06
1.254759471e-06
1.257828228e-06
1.26072106e-06
1.263463777e-06
1.266080106e-06
1.268592526e-06
1.271023077e-06
1.27339419e-06
1.275729636e-06
1.278055645e-06
1.280402317e-06
1.282805499e-06
1.285309334e-06
1.287969817e-06
1.29086463e-06
1.293788926e-06
1.310177373e-06
1.015435839e-06
2.396539577e-06
9.342175433e-05
0.0003237353758
8.331856785e-07
1.001809653e-06
1.069392958e-06
1.109005582e-06
1.136075656e-06
1.156167254e-06
1.171883959e-06
1.184635947e-06
1.195265193e-06
1.204310921e-06
1.212137297e-06
1.219000762e-06
1.22508813e-06
1.230539396e-06
1.235462033e-06
1.23994031e-06
1.244041569e-06
1.247820577e-06
1.251322626e-06
1.254585808e-06
1.25764271e-06
1.260521737e-06
1.26324816e-06
1.265844997e-06
1.268333789e-06
1.270735325e-06
1.273070378e-06
1.275360501e-06
1.277628954e-06
1.27990184e-06
1.282209569e-06
1.2845888e-06
1.287085012e-06
1.289760354e-06
1.292403154e-06
1.308752513e-06
9.685311252e-07
3.277279555e-06
0.0001103913703
0.0003478620112
8.331300686e-07
1.001751943e-06
1.069322966e-06
1.108929705e-06
1.135994779e-06
1.156081861e-06
1.17179428e-06
1.184542051e-06
1.195167043e-06
1.204208397e-06
1.212030214e-06
1.218888873e-06
1.224971128e-06
1.230416906e-06
1.235333608e-06
1.239805412e-06
1.243899551e-06
1.24767065e-06
1.251163827e-06
1.254416942e-06
1.257462283e-06
1.260327864e-06
1.263038444e-06
1.26561637e-06
1.268082298e-06
1.270455861e-06
1.272756305e-06
1.275003175e-06
1.277217085e-06
1.279420626e-06
1.281639511e-06
1.283904036e-06
1.28625087e-06
1.288728696e-06
1.291146359e-06
1.306915508e-06
9.154166762e-07
4.760463047e-06
0.0001271430901
0.000371080872
8.330774241e-07
1.001698073e-06
1.069256641e-06
1.108857522e-06
1.135917616e-06
1.156000208e-06
1.171708373e-06
1.18445197e-06
1.195072758e-06
1.204109801e-06
1.211927133e-06
1.218781073e-06
1.224858315e-06
1.230298725e-06
1.235209629e-06
1.23967512e-06
1.243762324e-06
1.247525734e-06
1.251010295e-06
1.254253646e-06
1.257287793e-06
1.260140374e-06
1.262835666e-06
1.265395383e-06
1.267839359e-06
1.270186155e-06
1.272453629e-06
1.274659518e-06
1.276822088e-06
1.278960873e-06
1.281097579e-06
1.283257182e-06
1.285469157e-06
1.287771231e-06
1.290000755e-06
1.304652619e-06
8.776360217e-07
6.410030443e-06
0.0001434056287
0.0003934706585
8.330278873e-07
1.001648204e-06
1.069194198e-06
1.10878928e-06
1.135844443e-06
1.155922595e-06
1.171626564e-06
1.18436605e-06
1.194982709e-06
1.204015525e-06
1.211828469e-06
1.2186778e-06
1.224750157e-06
1.230185343e-06
1.235090615e-06
1.239549985e-06
1.243630476e-06
1.247386454e-06
1.250862701e-06
1.254096647e-06
1.257120027e-06
1.259960127e-06
1.262640769e-06
1.265183077e-06
1.267606123e-06
1.269927485e-06
1.272163757e-06
1.27433106e-06
1.276445589e-06
1.278524238e-06
1.28058533e-06
1.282649493e-06
1.284740533e-06
1.286887816e-06
1.288960484e-06
1.302190215e-06
8.520163374e-07
8.274139786e-06
0.0001589429479
0.0004159003899
8.329815982e-07
1.001602488e-06
1.069135847e-06
1.108725222e-06
1.135775528e-06
1.155849317e-06
1.171549168e-06
1.18428463e-06
1.194897256e-06
1.203925951e-06
1.211734625e-06
1.218579482e-06
1.224647103e-06
1.230077234e-06
1.234977068e-06
1.239430536e-06
1.243504566e-06
1.247253404e-06
1.250721678e-06
1.25394662e-06
1.25695971e-06
1.259787905e-06
1.262454601e-06
1.264980375e-06
1.267383595e-06
1.269680939e-06
1.27188786e-06
1.274019033e-06
1.276088837e-06
1.278111894e-06
1.280103703e-06
1.282081401e-06
1.28406452e-06
1.286076595e-06
1.288018828e-06
1.299678038e-06
8.384056526e-07
1.033386055e-05
0.0001736631361
0.0004381302808
8.32938693e-07
1.001561071e-06
1.06908179e-06
1.108665582e-06
1.135711133e-06
1.155780657e-06
1.171476493e-06
1.18420804e-06
1.194816748e-06
1.20384145e-06
1.211645993e-06
1.218486528e-06
1.224549584e-06
1.229974853e-06
1.234869464e-06
1.239317274e-06
1.243385123e-06
1.247127141e-06
1.250587814e-06
1.253804189e-06
1.256807506e-06
1.259624417e-06
1.262277921e-06
1.264788087e-06
1.267172638e-06
1.269447433e-06
1.271626892e-06
1.273724403e-06
1.275752749e-06
1.277724604e-06
1.279653113e-06
1.281552643e-06
1.283439596e-06
1.285333847e-06
1.287166958e-06
1.297224993e-06
8.359937789e-07
1.259769163e-05
0.0001876892959
0.0004587138264
8.328993046e-07
1.001524092e-06
1.069032222e-06
1.108610583e-06
1.135651509e-06
1.155716891e-06
1.171408835e-06
1.184136594e-06
1.194741521e-06
1.203762375e-06
1.211562946e-06
1.218399334e-06
1.224458017e-06
1.229878634e-06
1.234768257e-06
1.239210676e-06
1.243272643e-06
1.247008186e-06
1.250461656e-06
1.253669927e-06
1.256664019e-06
1.259470299e-06
1.262111397e-06
1.264606918e-06
1.266973992e-06
1.269227729e-06
1.27138162e-06
1.273447906e-06
1.275437967e-06
1.277362797e-06
1.279233569e-06
1.281062425e-06
1.282863474e-06
1.284654435e-06
1.286394008e-06
1.294882111e-06
8.448480627e-07
1.507581707e-05
0.0002010140084
0.0004768991337
8.328635625e-07
1.00149168e-06
1.068987331e-06
1.108560442e-06
1.135596895e-06
1.15565828e-06
1.171346477e-06
1.184070597e-06
1.194671897e-06
1.203689069e-06
1.211485845e-06
1.218318275e-06
1.224372793e-06
1.229788989e-06
1.234673878e-06
1.239111188e-06
1.243167593e-06
1.246897025e-06
1.250343709e-06
1.253544362e-06
1.256529797e-06
1.259326119e-06
1.261955622e-06
1.264437478e-06
1.266788276e-06
1.26902245e-06
1.271152648e-06
1.273190086e-06
1.275144908e-06
1.277026646e-06
1.27884479e-06
1.280609639e-06
1.282333499e-06
1.284032668e-06
1.285688336e-06
1.292684314e-06
8.651406046e-07
1.778272767e-05
0.0002137439704
0.0004942889555
8.328315919e-07
1.001463955e-06
1.068947292e-06
1.108515363e-06
1.135547519e-06
1.155605075e-06
1.171289689e-06
1.184010337e-06
1.194608184e-06
1.203621854e-06
1.211415028e-06
1.21824371e-06
1.224294287e-06
1.229706305e-06
1.234586729e-06
1.239019229e-06
1.243070408e-06
1.246794107e-06
1.250234438e-06
1.253427972e-06
1.256405334e-06
1.259192386e-06
1.261811111e-06
1.26428029e-06
1.266616015e-06
1.268832102e-06
1.270940442e-06
1.272951331e-06
1.274873816e-06
1.276716141e-06
1.278486329e-06
1.28019307e-06
1.281847065e-06
1.283463258e-06
1.285039697e-06
1.290661281e-06
8.970710887e-07
2.070930417e-05
0.0002257890794
0.0005143077511
8.328035157e-07
1.001441028e-06
1.068912272e-06
1.108475537e-06
1.135503598e-06
1.15555751e-06
1.171238725e-06
1.183956085e-06
1.194550669e-06
1.203561037e-06
1.211350819e-06
1.218175974e-06
1.22422285e-06
1.22963095e-06
1.234507193e-06
1.238935195e-06
1.242981495e-06
1.246699851e-06
1.250134274e-06
1.253321199e-06
1.256291079e-06
1.259069554e-06
1.261678324e-06
1.264135808e-06
1.266457647e-06
1.268657096e-06
1.27074536e-06
1.272731908e-06
1.274624806e-06
1.276431152e-06
1.278157661e-06
1.279811554e-06
1.28140195e-06
1.282942098e-06
1.284441315e-06
1.288807527e-06
9.444316358e-07
2.370404118e-05
0.0002372063603
0.0005387414551
8.32779453e-07
1.001422994e-06
1.068882427e-06
1.108441145e-06
1.135465332e-06
1.155515808e-06
1.171193825e-06
1.183908099e-06
1.194499626e-06
1.203506906e-06
1.211293519e-06
1.218115386e-06
1.224158814e-06
1.229563267e-06
1.234435625e-06
1.238859453e-06
1.242901232e-06
1.246614647e-06
1.250043614e-06
1.253224447e-06
1.256187441e-06
1.258958034e-06
1.261557666e-06
1.264004428e-06
1.266313547e-06
1.268497768e-06
1.270567675e-06
1.272531992e-06
1.274397902e-06
1.276171478e-06
1.27785825e-06
1.279464075e-06
1.280996463e-06
1.28246658e-06
1.283891448e-06
1.286971056e-06
1.017275366e-06
2.816676035e-05
0.0002474759501
0.0005490832383
8.327595216e-07
1.001409936e-06
1.0688579e-06
1.108412351e-06
1.135432906e-06
1.155480172e-06
1.171155209e-06
1.183866616e-06
1.194455308e-06
1.203459729e-06
1.211243413e-06
1.218062241e-06
1.224102487e-06
1.22950358e-06
1.234372359e-06
1.238792349e-06
1.242829976e-06
1.246538859e-06
1.249962829e-06
1.253138091e-06
1.256094797e-06
1.2588582e-06
1.261449505e-06
1.263886502e-06
1.26618404e-06
1.268354403e-06
1.270407607e-06
1.272351702e-06
1.27419308e-06
1.275936888e-06
1.27758759e-06
1.279149779e-06
1.280629393e-06
1.282035367e-06
1.283387796e-06
1.285570333e-06
1.105866728e-06
3.298212865e-05
0.0002564100405
0.0005487445748
8.327438399e-07
1.001401922e-06
1.068838822e-06
1.108389307e-06
1.135406492e-06
1.15545079e-06
1.171123082e-06
1.183831856e-06
1.19441795e-06
1.203419754e-06
1.211200762e-06
1.218016817e-06
1.224054161e-06
1.22945219e-06
1.234317711e-06
1.238734208e-06
1.242768061e-06
1.24647283e-06
1.24989227e-06
1.253062486e-06
1.256013502e-06
1.258770405e-06
1.261354185e-06
1.263782357e-06
1.266069429e-06
1.268227257e-06
1.270265345e-06
1.272191131e-06
1.274010293e-06
1.27572715e-06
1.277345211e-06
1.278867942e-06
1.28029984e-06
1.281647774e-06
1.282933381e-06
1.284607772e-06
1.207222982e-06
3.75309886e-05
0.0002643880847
0.0005610741591
8.327325321e-07
1.001398996e-06
1.068825311e-06
1.108372149e-06
1.135386243e-06
1.155427832e-06
1.171097631e-06
1.183804019e-06
1.194387767e-06
1.203387213e-06
1.211165809e-06
1.217979369e-06
1.224014103e-06
1.22940938e-06
1.234271974e-06
1.238685337e-06
1.242715805e-06
1.246416886e-06
1.249832268e-06
1.252997969e-06
1.255943897e-06
1.258694989e-06
1.261272039e-06
1.263692314e-06
1.265970006e-06
1.268116583e-06
1.27014108e-06
1.272050376e-06
1.273849508e-06
1.275542056e-06
1.277130695e-06
1.278617923e-06
1.28000703e-06
1.281303218e-06
1.282530278e-06
1.28401352e-06
1.256908744e-06
1.921942409e-05
0.0002714467835
0.0005669484263
8.327257333e-07
1.001401181e-06
1.068817473e-06
1.108360996e-06
1.135372293e-06
1.155411449e-06
1.171079019e-06
1.183783286e-06
1.194364953e-06
1.203362311e-06
1.211138777e-06
1.217950134e-06
1.223982565e-06
1.229375413e-06
1.234235426e-06
1.238646024e-06
1.242673508e-06
1.24637134e-06
1.249783148e-06
1.252944872e-06
1.255886319e-06
1.258632291e-06
1.261203405e-06
1.263616701e-06
1.265886081e-06
1.268022657e-06
1.270035031e-06
1.271929571e-06
1.273710736e-06
1.275381453e-06
1.276943683e-06
1.278399141e-06
1.279750189e-06
1.281000897e-06
1.282178726e-06
1.283503707e-06
1.247150958e-06
4.780475554e-06
0.000277737828
0.0005788808248
8.327236046e-07
1.001408461e-06
1.068815399e-06
1.108355949e-06
1.135364761e-06
1.155401773e-06
1.171067394e-06
1.183769815e-06
1.194349679e-06
1.203345235e-06
1.211119866e-06
1.217929326e-06
1.223959776e-06
1.229350534e-06
1.234208326e-06
1.238616545e-06
1.24264146e-06
1.246336494e-06
1.249745223e-06
1.252903522e-06
1.255841106e-06
1.258582657e-06
1.261148634e-06
1.263555867e-06
1.265817996e-06
1.267945799e-06
1.269947475e-06
1.271828927e-06
1.273594082e-06
1.275245289e-06
1.276783918e-06
1.278211083e-06
1.279528519e-06
1.280739727e-06
1.281877434e-06
1.28301794e-06
1.239153028e-06
4.713452e-06
0.0002832806551
0.0005838885278
8.327263503e-07
1.001420781e-06
1.068819168e-06
1.108357093e-06
1.135363743e-06
1.155398912e-06
1.171062876e-06
1.183763742e-06
1.194342097e-06
1.20333615e-06
1.211109253e-06
1.217917139e-06
1.223945944e-06
1.229334968e-06
1.234190916e-06
1.238597158e-06
1.242619936e-06
1.246312641e-06
1.249718807e-06
1.252874249e-06
1.255808605e-06
1.258546451e-06
1.261108101e-06
1.2635102e-06
1.265766138e-06
1.267886387e-06
1.269878771e-06
1.271748756e-06
1.273499779e-06
1.275133666e-06
1.276651297e-06
1.278053363e-06
1.279341254e-06
1.280518439e-06
1.281624557e-06
1.282552635e-06
1.231523094e-06
4.899575096e-06
0.0002882003779
0.0005925993342
8.32734251e-07
1.001438012e-06
1.068828845e-06
1.10836449e-06
1.135369311e-06
1.155402954e-06
1.171065566e-06
1.183765178e-06
1.194342329e-06
1.203335192e-06
1.211107093e-06
1.217913742e-06
1.223941257e-06
1.22932892e-06
1.23418342e-06
1.238588106e-06
1.242609202e-06
1.24630007e-06
1.249704208e-06
1.252857384e-06
1.25578917e-06
1.258524046e-06
1.261082201e-06
1.263480105e-06
1.265730927e-06
1.26784485e-06
1.269829348e-06
1.271689473e-06
1.273428199e-06
1.275046863e-06
1.276545937e-06
1.277925812e-06
1.27918778e-06
1.280335763e-06
1.281418051e-06
1.282098798e-06
1.223703673e-06
5.164757895e-06
0.0002926175367
0.0005974172491
8.327477093e-07
1.001459947e-06
1.06884448e-06
1.108378181e-06
1.135381519e-06
1.155413958e-06
1.171075534e-06
1.183774207e-06
1.194350474e-06
1.203342475e-06
1.211113513e-06
1.217919279e-06
1.223945877e-06
1.229332574e-06
1.234186043e-06
1.238589621e-06
1.242609515e-06
1.246299067e-06
1.249701748e-06
1.252853287e-06
1.2557832e-06
1.258515887e-06
1.261071422e-06
1.263466117e-06
1.265712929e-06
1.267821769e-06
1.269799775e-06
1.271651617e-06
1.273379834e-06
1.274985312e-06
1.27646815e-06
1.277828521e-06
1.279067772e-06
1.280190671e-06
1.281256048e-06
1.281643039e-06
1.215252232e-06
5.458840545e-06
0.0002965363887
0.0006027417113
8.327673271e-07
1.001486272e-06
1.068866125e-06
1.108398194e-06
1.135400394e-06
1.155431963e-06
1.171092827e-06
1.183790888e-06
1.194366602e-06
1.203358082e-06
1.211128614e-06
1.217933871e-06
1.223959945e-06
1.229346093e-06
1.234198977e-06
1.238601925e-06
1.242621132e-06
1.246309928e-06
1.249711766e-06
1.252862347e-06
1.255791142e-06
1.258522485e-06
1.26107635e-06
1.263468904e-06
1.265712905e-06
1.267817996e-06
1.269790981e-06
1.271636141e-06
1.273355587e-06
1.274949788e-06
1.276418524e-06
1.277761829e-06
1.278981204e-06
1.280082558e-06
1.281137333e-06
1.281168165e-06
1.20564823e-06
5.767315409e-06
0.0003002155399
0.0006069566278
8.327927597e-07
1.001517239e-06
1.068893754e-06
1.108424526e-06
1.135425942e-06
1.155456979e-06
1.171117465e-06
1.183815247e-06
1.19439075e-06
1.203382066e-06
1.211152462e-06
1.217957602e-06
1.223983568e-06
1.229369608e-06
1.234222381e-06
1.238625208e-06
1.242644282e-06
1.246332927e-06
1.249734586e-06
1.252884945e-06
1.255813443e-06
1.258544363e-06
1.261097594e-06
1.263489178e-06
1.265731686e-06
1.267834506e-06
1.269804103e-06
1.271644348e-06
1.273356894e-06
1.274941745e-06
1.27639836e-06
1.277726708e-06
1.278928558e-06
1.280011326e-06
1.28106164e-06
1.280652526e-06
1.194496083e-06
6.07414314e-06
0.0003034311437
0.0006104324033
8.328225682e-07
1.001553455e-06
1.068927209e-06
1.108457116e-06
1.135458119e-06
1.155488974e-06
1.171149422e-06
1.183847269e-06
1.194422915e-06
1.203414433e-06
1.211185081e-06
1.217990513e-06
1.224016806e-06
1.229403205e-06
1.23425637e-06
1.238659622e-06
1.242679159e-06
1.246368308e-06
1.249770514e-06
1.252921459e-06
1.255850566e-06
1.258582084e-06
1.261135837e-06
1.263527756e-06
1.265770243e-06
1.267872432e-06
1.269840452e-06
1.271677742e-06
1.273385478e-06
1.274963133e-06
1.276409743e-06
1.277725159e-06
1.278911456e-06
1.279978037e-06
1.281030174e-06
1.280071398e-06
1.181271859e-06
6.378319045e-06
0.0003065073709
0.0006134126084
8.328566904e-07
1.00159483e-06
1.068966407e-06
1.108495886e-06
1.135496856e-06
1.155527882e-06
1.171188641e-06
1.183886906e-06
1.194463056e-06
1.203455157e-06
1.211226458e-06
1.21803261e-06
1.224059689e-06
1.229446943e-06
1.234301036e-06
1.2387053e-06
1.242725944e-06
1.24641631e-06
1.249819859e-06
1.252972282e-06
1.255903007e-06
1.258636269e-06
1.261191851e-06
1.263585596e-06
1.265829748e-06
1.2679332e-06
1.269901729e-06
1.271738308e-06
1.273443582e-06
1.275016433e-06
1.276455373e-06
1.277760035e-06
1.278932729e-06
1.279985396e-06
1.281046502e-06
1.279394245e-06
1.165523854e-06
6.674819584e-06
0.0003092168581
0.0006159212122
8.328950602e-07
1.001641277e-06
1.069011259e-06
1.108540743e-06
1.135542059e-06
1.155573614e-06
1.171235035e-06
1.183934076e-06
1.194511104e-06
1.20350418e-06
1.211276551e-06
1.218083869e-06
1.224112216e-06
1.229500849e-06
1.234356443e-06
1.23876235e-06
1.242784801e-06
1.246477165e-06
1.249882931e-06
1.253037825e-06
1.255971301e-06
1.258707605e-06
1.26126651e-06
1.263663796e-06
1.265911578e-06
1.268018516e-06
1.269990026e-06
1.271828569e-06
1.273534177e-06
1.275105038e-06
1.276538969e-06
1.277835224e-06
1.278996276e-06
1.28003738e-06
1.281116206e-06
1.278576461e-06
1.146439072e-06
6.961437987e-06
0.0003117773759
0.0006179429332
8.329375856e-07
1.00169268e-06
1.069061649e-06
1.108591568e-06
1.135593607e-06
1.155626047e-06
1.171288486e-06
1.183988666e-06
1.194566951e-06
1.203561403e-06
1.211335274e-06
1.218144224e-06
1.224174346e-06
1.229564912e-06
1.234422619e-06
1.238830848e-06
1.242855864e-06
1.246551081e-06
1.249960036e-06
1.253118509e-06
1.256056012e-06
1.258796841e-06
1.26136079e-06
1.263763619e-06
1.266017347e-06
1.26813042e-06
1.270107893e-06
1.271951671e-06
1.273661058e-06
1.275233409e-06
1.276665605e-06
1.27795621e-06
1.279107631e-06
1.28013945e-06
1.281246228e-06
1.277556896e-06
1.123077782e-06
7.2512319e-06
0.0003141197655
0.0006195703852
8.32984154e-07
1.0017489e-06
1.069117434e-06
1.108648213e-06
1.135651347e-06
1.155685027e-06
1.171348837e-06
1.184050521e-06
1.194630448e-06
1.203626687e-06
1.211402501e-06
1.218213565e-06
1.224245989e-06
1.229639073e-06
1.234499545e-06
1.238910825e-06
1.24293923e-06
1.246638234e-06
1.25005145e-06
1.253214744e-06
1.256157723e-06
1.258904771e-06
1.261475762e-06
1.263886486e-06
1.266148915e-06
1.268271325e-06
1.270258419e-06
1.272111514e-06
1.273829049e-06
1.27540734e-06
1.276842035e-06
1.278130531e-06
1.279274671e-06
1.280299285e-06
1.281445295e-06
1.276244939e-06
1.093948424e-06
7.557255986e-06
0.0003164148939
0.0006209138163
8.330346329e-07
1.001809771e-06
1.069178442e-06
1.108710498e-06
1.135715093e-06
1.155750362e-06
1.171415896e-06
1.184119448e-06
1.194701402e-06
1.203699843e-06
1.211478052e-06
1.218291726e-06
1.224327004e-06
1.229723219e-06
1.234587144e-06
1.239002256e-06
1.243034938e-06
1.246738751e-06
1.250157414e-06
1.253326915e-06
1.256277004e-06
1.259032217e-06
1.261612568e-06
1.264033957e-06
1.266308388e-06
1.268444036e-06
1.270445292e-06
1.272312868e-06
1.274044215e-06
1.275634327e-06
1.277077224e-06
1.278368477e-06
1.279508524e-06
1.280528098e-06
1.281719307e-06
1.274592077e-06
1.057570252e-06
7.885259691e-06
0.0003185554211
0.0006220262527
8.330888693e-07
1.001875103e-06
1.069244473e-06
1.108778212e-06
1.135784624e-06
1.155821825e-06
1.171489427e-06
1.184195207e-06
1.194779574e-06
1.203780635e-06
1.211561698e-06
1.218378491e-06
1.22441719e-06
1.229817175e-06
1.234685278e-06
1.239105049e-06
1.243142962e-06
1.246852693e-06
1.250278104e-06
1.253455356e-06
1.2564144e-06
1.259179997e-06
1.261772399e-06
1.264207718e-06
1.26649811e-06
1.268651765e-06
1.270672852e-06
1.272561506e-06
1.274314099e-06
1.275923994e-06
1.277383026e-06
1.278684102e-06
1.279824981e-06
1.280842681e-06
1.282082457e-06
1.272657303e-06
1.014909212e-06
8.230883668e-06
0.0003205680894
0.0006228952425
8.331466903e-07
1.001944683e-06
1.069315299e-06
1.108851113e-06
1.135859686e-06
1.155899149e-06
1.171569155e-06
1.184277518e-06
1.194864678e-06
1.203868775e-06
1.211653153e-06
1.218473579e-06
1.224516281e-06
1.229920697e-06
1.234793734e-06
1.239219036e-06
1.243263195e-06
1.24698004e-06
1.250413619e-06
1.253600325e-06
1.256570389e-06
1.259348895e-06
1.261956453e-06
1.264409541e-06
1.266720639e-06
1.268898134e-06
1.270946149e-06
1.272864351e-06
1.27464802e-06
1.2762886e-06
1.277775093e-06
1.279096619e-06
1.280246543e-06
1.28126811e-06
1.28255802e-06
1.270434047e-06
9.713428785e-07
8.604763969e-06
0.0003224021926
0.0006235163294
8.332079034e-07
1.002018273e-06
1.069390665e-06
1.108928928e-06
1.13593999e-06
1.155982032e-06
1.171654765e-06
1.184366054e-06
1.194956378e-06
1.203963921e-06
1.211752072e-06
1.218576649e-06
1.224623941e-06
1.230033462e-06
1.234912213e-06
1.239343956e-06
1.243395434e-06
1.247120667e-06
1.250563948e-06
1.253761974e-06
1.256745351e-06
1.259539614e-06
1.262165892e-06
1.264641235e-06
1.266978698e-06
1.269187154e-06
1.271270975e-06
1.273229615e-06
1.275057391e-06
1.276743677e-06
1.278274015e-06
1.279632353e-06
1.280805416e-06
1.2818422e-06
1.283184656e-06
1.26793276e-06
9.277314895e-07
8.978566304e-06
0.0003240713034
0.0006239179619
8.332722973e-07
1.002095611e-06
1.069470288e-06
1.109011353e-06
1.136025213e-06
1.156070132e-06
1.171745901e-06
1.184460441e-06
1.195054289e-06
1.204065677e-06
1.211858049e-06
1.21868729e-06
1.22473976e-06
1.230155067e-06
1.235040326e-06
1.239479446e-06
1.24353936e-06
1.247274325e-06
1.250728945e-06
1.253940311e-06
1.256939519e-06
1.259752717e-06
1.262401766e-06
1.264904567e-06
1.267275103e-06
1.269523163e-06
1.271653852e-06
1.273666907e-06
1.275556084e-06
1.277308824e-06
1.278906766e-06
1.280327305e-06
1.28154782e-06
1.2826221e-06
1.284024703e-06
1.26522908e-06
8.853823472e-07
9.324919054e-06
0.000325540063
0.0006241478494
8.333396429e-07
1.002176415e-06
1.069553862e-06
1.109098058e-06
1.136115001e-06
1.156163074e-06
1.171842163e-06
1.184560264e-06
1.195157974e-06
1.204173589e-06
1.211970618e-06
1.21880502e-06
1.224863247e-06
1.230285016e-06
1.23517758e-06
1.239625027e-06
1.243694521e-06
1.247440615e-06
1.250908297e-06
1.254135154e-06
1.257152923e-06
1.259988559e-06
1.26266493e-06
1.265201158e-06
1.267612641e-06
1.269910711e-06
1.27210197e-06
1.274187303e-06
1.276160776e-06
1.278008582e-06
1.279708568e-06
1.281230586e-06
1.282540036e-06
1.283694435e-06
1.285181237e-06
1.262457024e-06
8.455821481e-07
9.606459481e-06
0.0003268126721
0.0006242182319
8.334096948e-07
1.002260384e-06
1.069641056e-06
1.109188682e-06
1.136208968e-06
1.156260446e-06
1.171943117e-06
1.18466506e-06
1.195266948e-06
1.204287148e-06
1.212089246e-06
1.218929288e-06
1.22499383e-06
1.230422718e-06
1.235323372e-06
1.239780093e-06
1.243860321e-06
1.247618968e-06
1.25110149e-06
1.254346093e-06
1.257385328e-06
1.260247204e-06
1.262955936e-06
1.265532344e-06
1.267993904e-06
1.270354381e-06
1.27262303e-06
1.274803307e-06
1.276891222e-06
1.278873389e-06
1.280725155e-06
1.282409027e-06
1.283876903e-06
1.285190294e-06