/*--------------------------------*- C++ -*----------------------------------*\
| =========                 |                                                 |
| \\      /  F ield         | OpenFOAM: The Open Source CFD Toolbox           |
|  \\    /   O peration     | Version:  v1912                                 |
|   \\  /    A nd           | Website:  www.openfoam.com                      |
|    \\/     M anipulation  |                                                 |
\*---------------------------------------------------------------------------*/
FoamFile
{
    version     2.0;
    format      ascii;
    class       volScalarField;
    location    "0.3";
    object      k.liquid_0;
}
// * * * * * * * * * * * * * * * * * * * * * * * * * * * * * * * * * * * * * //

dimensions      [0 2 -2 0 0 0 0];


internalField   nonuniform List<scalar> 
4800
(
3.021053221e-07
3.485988871e-07
3.66436546e-07
3.768543098e-07
3.841213107e-07
3.897397615e-07
3.944130486e-07
3.985305664e-07
4.023364891e-07
4.060009686e-07
4.09654595e-07
4.134070176e-07
4.173581768e-07
4.216057849e-07
4.262510425e-07
4.31403537e-07
4.37186048e-07
4.437397158e-07
4.512300831e-07
4.598545053e-07
4.698515945e-07
4.815135849e-07
4.952028638e-07
5.113745294e-07
5.306077274e-07
5.536499596e-07
5.814810789e-07
6.15407672e-07
6.572056398e-07
7.093415543e-07
7.753270916e-07
8.60307086e-07
9.720787085e-07
1.122895414e-06
1.333722626e-06
1.633954905e-06
2.11831349e-06
3.059833754e-06
1.835514058e-06
1.488288468e-05
8.786708764e-07
1.059493215e-06
1.132275046e-06
1.174946268e-06
1.204111532e-06
1.225761267e-06
1.242702969e-06
1.25645893e-06
1.26793892e-06
1.277726161e-06
1.286215003e-06
1.293683621e-06
1.300335136e-06
1.306322322e-06
1.311763067e-06
1.316750532e-06
1.321360005e-06
1.32565373e-06
1.329684407e-06
1.333497842e-06
1.337135055e-06
1.340634064e-06
1.344031525e-06
1.347364407e-06
1.350671804e-06
1.353997243e-06
1.357391682e-06
1.360917794e-06
1.364656401e-06
1.368716596e-06
1.373252522e-06
1.378492242e-06
1.384797441e-06
1.392601327e-06
1.40575657e-06
1.387625515e-06
1.698168575e-06
2.05068941e-06
8.160907017e-06
6.513599174e-05
8.328772732e-07
1.002073461e-06
1.070060403e-06
1.109928127e-06
1.137192969e-06
1.157442619e-06
1.173293191e-06
1.186162213e-06
1.196896336e-06
1.206037967e-06
1.213953566e-06
1.220901322e-06
1.22706945e-06
1.232599144e-06
1.237598981e-06
1.242154315e-06
1.246333637e-06
1.250193024e-06
1.253779343e-06
1.257132658e-06
1.26028812e-06
1.263277544e-06
1.266130839e-06
1.268877406e-06
1.27154774e-06
1.274175351e-06
1.276799385e-06
1.279468394e-06
1.282246095e-06
1.285220577e-06
1.288519594e-06
1.292336901e-06
1.296984012e-06
1.302882215e-06
1.312229409e-06
1.314393237e-06
1.379533801e-06
7.728539021e-07
9.150784762e-06
9.483624828e-05
8.355309863e-07
1.005372441e-06
1.073613632e-06
1.113627109e-06
1.14098943e-06
1.161310779e-06
1.177217866e-06
1.190133993e-06
1.20090929e-06
1.210088422e-06
1.218039418e-06
1.225021613e-06
1.231224119e-06
1.236788865e-06
1.241825066e-06
1.246418664e-06
1.250638724e-06
1.254541902e-06
1.258175682e-06
1.261580804e-06
1.264793179e-06
1.267845492e-06
1.270768657e-06
1.273593265e-06
1.276351198e-06
1.279077602e-06
1.281813507e-06
1.284609556e-06
1.287531568e-06
1.290669177e-06
1.294149684e-06
1.298160773e-06
1.3029924e-06
1.309014098e-06
1.318219849e-06
1.322196094e-06
1.296443864e-06
1.810572955e-06
5.691860223e-06
0.0001189486205
8.352802016e-07
1.005069356e-06
1.073285468e-06
1.113284349e-06
1.140635952e-06
1.160948551e-06
1.176847934e-06
1.189756885e-06
1.200525217e-06
1.209697377e-06
1.217641235e-06
1.224615998e-06
1.230810667e-06
1.236367068e-06
1.241394309e-06
1.245978222e-06
1.250187742e-06
1.254079377e-06
1.257700426e-06
1.261091401e-06
1.264287917e-06
1.267322276e-06
1.270224873e-06
1.273025596e-06
1.27575534e-06
1.27844783e-06
1.281142001e-06
1.283885291e-06
1.286738451e-06
1.289782775e-06
1.29313125e-06
1.29694602e-06
1.301466421e-06
1.307044718e-06
1.314185127e-06
1.326899166e-06
1.306737418e-06
9.078264045e-07
2.205477126e-05
0.0001408241293
8.352152969e-07
1.004998169e-06
1.073206891e-06
1.113201623e-06
1.140549653e-06
1.160858919e-06
1.176755026e-06
1.189660647e-06
1.200425517e-06
1.20959403e-06
1.217534007e-06
1.224504612e-06
1.230694803e-06
1.236246358e-06
1.241268332e-06
1.245846493e-06
1.250049697e-06
1.253934353e-06
1.257547632e-06
1.260929875e-06
1.264116471e-06
1.267139412e-06
1.270028667e-06
1.272813519e-06
1.275523998e-06
1.278192558e-06
1.280856217e-06
1.283559462e-06
1.28635836e-06
1.289326551e-06
1.292564183e-06
1.296211314e-06
1.300467817e-06
1.305639383e-06
1.311564763e-06
1.332540095e-06
1.207715513e-06
1.039801125e-06
1.378434744e-05
0.0001633821572
8.351403451e-07
1.004914669e-06
1.073114184e-06
1.11310382e-06
1.140447571e-06
1.160752932e-06
1.176645268e-06
1.189547109e-06
1.200308092e-06
1.209472542e-06
1.21740822e-06
1.224374237e-06
1.230559497e-06
1.236105723e-06
1.241121904e-06
1.245693733e-06
1.249889972e-06
1.253766911e-06
1.257371569e-06
1.260744086e-06
1.263919586e-06
1.266929696e-06
1.269803888e-06
1.272570753e-06
1.275259332e-06
1.277900646e-06
1.280529603e-06
1.283187503e-06
1.285925497e-06
1.288809499e-06
1.291927276e-06
1.295398783e-06
1.299391649e-06
1.304138084e-06
1.309907363e-06
1.324149691e-06
1.187259926e-06
1.580270669e-06
2.347877886e-05
0.0001900886135
8.350678955e-07
1.004834534e-06
1.073024323e-06
1.113008683e-06
1.140347989e-06
1.160649297e-06
1.176537728e-06
1.189435663e-06
1.200192643e-06
1.209352916e-06
1.217284183e-06
1.224245499e-06
1.230425711e-06
1.235966482e-06
1.240976734e-06
1.245542073e-06
1.249731164e-06
1.253600167e-06
1.257195935e-06
1.26055839e-06
1.263722364e-06
1.266719096e-06
1.26957752e-06
1.272325483e-06
1.274990978e-06
1.277603531e-06
1.28019587e-06
1.282806081e-06
1.285480491e-06
1.288277674e-06
1.291274115e-06
1.294572345e-06
1.29831339e-06
1.302676445e-06
1.3084777e-06
1.304155718e-06
1.445480875e-06
5.53656373e-06
3.803608084e-05
0.0002157162895
8.349973182e-07
1.004756967e-06
1.072936473e-06
1.112915356e-06
1.14025004e-06
1.160547142e-06
1.17643153e-06
1.189325434e-06
1.200078292e-06
1.209234277e-06
1.217161023e-06
1.224117529e-06
1.230292582e-06
1.23582778e-06
1.240831973e-06
1.24539068e-06
1.249572458e-06
1.25343333e-06
1.257019971e-06
1.260372074e-06
1.263524163e-06
1.266507062e-06
1.269349144e-06
1.272077481e-06
1.274718987e-06
1.277301665e-06
1.27985607e-06
1.282417137e-06
1.285026588e-06
1.287736194e-06
1.290612336e-06
1.293742532e-06
1.297245396e-06
1.301279273e-06
1.306152359e-06
1.314499757e-06
1.233412701e-06
1.492232515e-06
2.235365301e-05
0.0002418673913
8.349288167e-07
1.004682216e-06
1.072850933e-06
1.11282417e-06
1.140154084e-06
1.16044685e-06
1.17632708e-06
1.189216851e-06
1.199965495e-06
1.209117103e-06
1.217039246e-06
1.223990861e-06
1.230160674e-06
1.235690217e-06
1.240688264e-06
1.245240243e-06
1.249414598e-06
1.25326721e-06
1.256844571e-06
1.260186132e-06
1.263326099e-06
1.26629487e-06
1.269120242e-06
1.2718285e-06
1.274445474e-06
1.276997658e-06
1.279513483e-06
1.282024874e-06
1.284569243e-06
1.287192153e-06
1.289951003e-06
1.2929203e-06
1.296199629e-06
1.299925478e-06
1.3042165e-06
1.31363925e-06
1.256216404e-06
2.433890621e-07
3.931868172e-05
0.0002702848759
8.34862541e-07
1.004610459e-06
1.072767932e-06
1.112735384e-06
1.140060404e-06
1.160348728e-06
1.176224711e-06
1.189110269e-06
1.199854626e-06
1.209001795e-06
1.216919279e-06
1.22386595e-06
1.230030473e-06
1.235554314e-06
1.240546166e-06
1.245091366e-06
1.249258243e-06
1.253102531e-06
1.256670534e-06
1.260001458e-06
1.263129186e-06
1.266083683e-06
1.268892169e-06
1.271580145e-06
1.274172373e-06
1.276693878e-06
1.279171057e-06
1.281633002e-06
1.284113147e-06
1.286651442e-06
1.289297325e-06
1.292113944e-06
1.295184425e-06
1.298624237e-06
1.302394819e-06
1.314563595e-06
1.193732806e-06
3.131316242e-07
5.649144621e-05
0.0002996772908
8.347986436e-07
1.004541877e-06
1.072687702e-06
1.112649263e-06
1.139969293e-06
1.160253095e-06
1.176124763e-06
1.189006051e-06
1.199746076e-06
1.208888767e-06
1.216801559e-06
1.223743262e-06
1.229902478e-06
1.235420602e-06
1.24040625e-06
1.244944667e-06
1.249104062e-06
1.252940024e-06
1.256498667e-06
1.259818951e-06
1.262934435e-06
1.265874655e-06
1.268666259e-06
1.271333979e-06
1.273901542e-06
1.276392565e-06
1.278831526e-06
1.28124488e-06
1.283662428e-06
1.286119076e-06
1.288657222e-06
1.291330082e-06
1.294206487e-06
1.297383456e-06
1.30066264e-06
1.317054856e-06
1.077457181e-06
1.2287977e-06
7.382912297e-05
0.0003293689514
8.347372757e-07
1.004476648e-06
1.072610475e-06
1.11256607e-06
1.139881042e-06
1.160160268e-06
1.176027577e-06
1.188904563e-06
1.199640233e-06
1.208778433e-06
1.216686529e-06
1.223623267e-06
1.229777187e-06
1.235289616e-06
1.24026909e-06
1.244800761e-06
1.248952722e-06
1.252780416e-06
1.256329769e-06
1.259639496e-06
1.262742837e-06
1.265668907e-06
1.268443796e-06
1.271091493e-06
1.273634731e-06
1.276095795e-06
1.27849737e-06
1.280863485e-06
1.283220645e-06
1.28559926e-06
1.28803552e-06
1.290573994e-06
1.293271204e-06
1.296206439e-06
1.299137011e-06
1.316481536e-06
1.018889911e-06
1.824788028e-06
9.101959747e-05
0.0003590120116
8.346785872e-07
1.004414947e-06
1.072536481e-06
1.112486068e-06
1.139795943e-06
1.160070564e-06
1.175933497e-06
1.188806173e-06
1.199537488e-06
1.208671208e-06
1.216574629e-06
1.223506434e-06
1.2296551e-06
1.235161887e-06
1.240135254e-06
1.244660259e-06
1.248804882e-06
1.252624422e-06
1.25616462e-06
1.259463953e-06
1.262555348e-06
1.265467514e-06
1.268225999e-06
1.270854082e-06
1.273373554e-06
1.275805453e-06
1.278170802e-06
1.280491414e-06
1.282790831e-06
1.285095472e-06
1.287436107e-06
1.28984983e-06
1.292382652e-06
1.295098224e-06
1.297747539e-06
1.315147426e-06
9.694687694e-07
2.632652864e-06
0.0001081252028
0.0003882359863
8.346227262e-07
1.004356944e-06
1.072465946e-06
1.112409518e-06
1.139714286e-06
1.159984298e-06
1.17584286e-06
1.188711242e-06
1.199438229e-06
1.208567504e-06
1.216466296e-06
1.223393227e-06
1.22953671e-06
1.235037939e-06
1.2400053e-06
1.244523758e-06
1.248661184e-06
1.252472735e-06
1.256003974e-06
1.259293147e-06
1.26237288e-06
1.265271487e-06
1.268014003e-06
1.270623034e-06
1.273119484e-06
1.275523229e-06
1.277853764e-06
1.280130896e-06
1.282375519e-06
1.28461054e-06
1.286862036e-06
1.289160729e-06
1.291543801e-06
1.294061223e-06
1.296486637e-06
1.313406572e-06
9.122925624e-07
4.069091362e-06
0.0001250594785
0.0004168300906
8.345698386e-07
1.004302805e-06
1.072399094e-06
1.112336676e-06
1.139636355e-06
1.159901781e-06
1.175756004e-06
1.188620131e-06
1.199342838e-06
1.208467729e-06
1.216361963e-06
1.223284102e-06
1.2294225e-06
1.234918287e-06
1.239879774e-06
1.24439184e-06
1.24852225e-06
1.252326024e-06
1.255848554e-06
1.259127863e-06
1.262196289e-06
1.265081773e-06
1.267808862e-06
1.270399525e-06
1.272873842e-06
1.275250612e-06
1.277547938e-06
1.279783815e-06
1.281976785e-06
1.284146695e-06
1.286315606e-06
1.288508907e-06
1.290756547e-06
1.29309731e-06
1.295336921e-06
1.31118283e-06
8.70484239e-07
5.673039618e-06
0.0001415355276
0.0004446974483
8.345200678e-07
1.004252691e-06
1.072336143e-06
1.112267794e-06
1.13956243e-06
1.15982332e-06
1.175673258e-06
1.188533191e-06
1.199251691e-06
1.208372279e-06
1.21626205e-06
1.223179506e-06
1.229312943e-06
1.234803428e-06
1.239759205e-06
1.244265068e-06
1.248388677e-06
1.252184927e-06
1.255699044e-06
1.258968839e-06
1.262026378e-06
1.264899247e-06
1.267611534e-06
1.270184614e-06
1.2726378e-06
1.274988903e-06
1.277254755e-06
1.279451728e-06
1.281596288e-06
1.283705631e-06
1.285798426e-06
1.287895697e-06
1.290021687e-06
1.292206605e-06
1.294292262e-06
1.308718316e-06
8.40728194e-07
7.50030055e-06
0.0001572900611
0.0004725067268
8.34473555e-07
1.004206756e-06
1.072277305e-06
1.112203116e-06
1.139492783e-06
1.159749211e-06
1.175594942e-06
1.188450769e-06
1.199165155e-06
1.208281544e-06
1.216166968e-06
1.223079872e-06
1.229208495e-06
1.234693847e-06
1.239644102e-06
1.244143978e-06
1.248261036e-06
1.252050049e-06
1.255556088e-06
1.258816764e-06
1.261863887e-06
1.264724708e-06
1.267422886e-06
1.269979244e-06
1.272412385e-06
1.274739213e-06
1.276975413e-06
1.279135899e-06
1.281235312e-06
1.283288566e-06
1.285311494e-06
1.287321614e-06
1.289338868e-06
1.291387479e-06
1.29334587e-06
1.306168399e-06
8.230231845e-07
9.529506587e-06
0.0001722319885
0.0005000836011
8.344304378e-07
1.004165149e-06
1.072222786e-06
1.11214288e-06
1.13942768e-06
1.159679745e-06
1.175521371e-06
1.188373197e-06
1.199083585e-06
1.208195901e-06
1.216077116e-06
1.22298562e-06
1.229109599e-06
1.234590007e-06
1.239534954e-06
1.244029083e-06
1.248139866e-06
1.251921959e-06
1.255420288e-06
1.258672278e-06
1.261709495e-06
1.264558881e-06
1.267243695e-06
1.269784247e-06
1.272198485e-06
1.274502488e-06
1.276710896e-06
1.278837328e-06
1.280894816e-06
1.282896311e-06
1.28485528e-06
1.286786461e-06
1.288706667e-06
1.290636373e-06
1.29248887e-06
1.303648926e-06
8.166257781e-07
1.176670726e-05
0.0001865124407
0.0005267359926
8.343908505e-07
1.00412801e-06
1.072172785e-06
1.112087314e-06
1.139367377e-06
1.1596152e-06
1.175452844e-06
1.188300799e-06
1.199007324e-06
1.208115713e-06
1.215992876e-06
1.222897153e-06
1.229016678e-06
1.23449235e-06
1.239432224e-06
1.24392087e-06
1.248025676e-06
1.251801191e-06
1.255292205e-06
1.258535968e-06
1.261563823e-06
1.264402421e-06
1.267074651e-06
1.269600349e-06
1.271996864e-06
1.274279516e-06
1.276462006e-06
1.27855679e-06
1.280575483e-06
1.282529341e-06
1.284429847e-06
1.286289507e-06
1.288122858e-06
1.289948215e-06
1.291710317e-06
1.30121505e-06
8.216891581e-07
1.422336267e-05
0.0002001372881
0.0005513571201
8.343549243e-07
1.00409547e-06
1.072127489e-06
1.112036638e-06
1.139312116e-06
1.159555845e-06
1.175389653e-06
1.188233883e-06
1.1989367e-06
1.208041326e-06
1.215914615e-06
1.222814855e-06
1.228930133e-06
1.234401299e-06
1.239336351e-06
1.243819797e-06
1.247918944e-06
1.251688243e-06
1.255172358e-06
1.258408377e-06
1.261427434e-06
1.264255916e-06
1.266916366e-06
1.269428185e-06
1.271808169e-06
1.274070952e-06
1.276229379e-06
1.278294867e-06
1.280277775e-06
1.282187881e-06
1.284034967e-06
1.285829692e-06
1.287584815e-06
1.289317289e-06
1.290998307e-06
1.298905177e-06
8.38493778e-07
1.691382913e-05
0.0002131625931
0.0005753181296
8.343227859e-07
1.004067654e-06
1.072087081e-06
1.11199106e-06
1.139262133e-06
1.159501935e-06
1.17533207e-06
1.188172744e-06
1.198872028e-06
1.207973073e-06
1.215842681e-06
1.222739091e-06
1.228850347e-06
1.234317252e-06
1.239247752e-06
1.243726295e-06
1.247820117e-06
1.251583578e-06
1.255061225e-06
1.25829e-06
1.261300843e-06
1.264119893e-06
1.26676938e-06
1.269268302e-06
1.271632952e-06
1.273877334e-06
1.276013519e-06
1.278051989e-06
1.280001984e-06
1.281871971e-06
1.283670246e-06
1.285405846e-06
1.287089948e-06
1.288738218e-06
1.29034216e-06
1.296751711e-06
8.674792787e-07
1.982825968e-05
0.0002254229089
0.0005987688718
8.342945601e-07
1.00404467e-06
1.072051728e-06
1.111950775e-06
1.139217645e-06
1.159453709e-06
1.175280358e-06
1.188117662e-06
1.198813603e-06
1.207911267e-06
1.215777404e-06
1.222670209e-06
1.228777682e-06
1.234240584e-06
1.239166816e-06
1.24364077e-06
1.247729615e-06
1.251487629e-06
1.254959254e-06
1.258181294e-06
1.261184514e-06
1.263994828e-06
1.266634173e-06
1.269121181e-06
1.271471681e-06
1.273699105e-06
1.275814822e-06
1.277828466e-06
1.279748274e-06
1.281581539e-06
1.28333522e-06
1.285016862e-06
1.286636055e-06
1.288206805e-06
1.289734721e-06
1.294744103e-06
9.129931791e-07
2.283302255e-05
0.0002369461645
0.0006237461947
8.342703676e-07
1.00402662e-06
1.072021591e-06
1.111915969e-06
1.13917886e-06
1.159411396e-06
1.175234761e-06
1.188068899e-06
1.198761704e-06
1.207856204e-06
1.215719095e-06
1.222608533e-06
1.228712478e-06
1.234171652e-06
1.239093911e-06
1.243563601e-06
1.247647829e-06
1.251400799e-06
1.254866856e-06
1.25808268e-06
1.261078876e-06
1.26388115e-06
1.266511173e-06
1.268987241e-06
1.271324759e-06
1.273536635e-06
1.275633599e-06
1.277624518e-06
1.279516723e-06
1.281316445e-06
1.283029424e-06
1.284661795e-06
1.286221503e-06
1.287720433e-06
1.289174242e-06
1.292727706e-06
9.828610247e-07
2.732683581e-05
0.0002475301213
0.0006481738052
8.342503279e-07
1.004013588e-06
1.071996815e-06
1.11188681e-06
1.139145968e-06
1.159375203e-06
1.175195507e-06
1.188026699e-06
1.198716594e-06
1.207808159e-06
1.215668046e-06
1.222554369e-06
1.228655055e-06
1.234110787e-06
1.239029384e-06
1.243495146e-06
1.247575129e-06
1.251323466e-06
1.254784418e-06
1.257994551e-06
1.260984324e-06
1.263779254e-06
1.266400772e-06
1.268866861e-06
1.271192541e-06
1.273390241e-06
1.275470109e-06
1.277440313e-06
1.27930736e-06
1.281076524e-06
1.282752426e-06
1.284339884e-06
1.285845192e-06
1.287277893e-06
1.288657958e-06
1.291145504e-06
1.069651807e-06
3.222105517e-05
0.000257166556
0.0006691167896
8.34234561e-07
1.004005643e-06
1.071977536e-06
1.111863452e-06
1.139119143e-06
1.159345325e-06
1.175162805e-06
1.187991288e-06
1.198678512e-06
1.207767389e-06
1.215624527e-06
1.222508003e-06
1.228605711e-06
1.234058301e-06
1.238973559e-06
1.243435743e-06
1.247511861e-06
1.251255988e-06
1.254712305e-06
1.257917277e-06
1.260901232e-06
1.263689515e-06
1.266303335e-06
1.268760395e-06
1.271075359e-06
1.273260217e-06
1.275324583e-06
1.27727599e-06
1.279120197e-06
1.280861612e-06
1.282503846e-06
1.284050519e-06
1.285506383e-06
1.286878743e-06
1.288189529e-06
1.290010906e-06
1.172007206e-06
3.729428507e-05
0.0002655505936
0.0006849445217
8.342231928e-07
1.004002832e-06
1.071963874e-06
1.111846036e-06
1.139098544e-06
1.159321935e-06
1.175136846e-06
1.187962873e-06
1.198647681e-06
1.207734131e-06
1.215588789e-06
1.2224697e-06
1.228564725e-06
1.234014488e-06
1.238926741e-06
1.243385709e-06
1.247458357e-06
1.251198704e-06
1.254650865e-06
1.257851213e-06
1.260829959e-06
1.263612292e-06
1.26621922e-06
1.268668189e-06
1.270973537e-06
1.27314685e-06
1.275197252e-06
1.277131693e-06
1.278955259e-06
1.280671573e-06
1.282283358e-06
1.283793188e-06
1.28520449e-06
1.286522717e-06
1.287771866e-06
1.2893078e-06
1.264063833e-06
2.990686867e-05
0.0002729910023
0.0006990099575
8.342163597e-07
1.00400518e-06
1.071955937e-06
1.111834685e-06
1.13908431e-06
1.159305191e-06
1.175117803e-06
1.18794164e-06
1.198624302e-06
1.207708599e-06
1.215561062e-06
1.222439703e-06
1.228532357e-06
1.233979621e-06
1.23888922e-06
1.243345347e-06
1.24741493e-06
1.251151942e-06
1.254600436e-06
1.257796707e-06
1.26077086e-06
1.263547944e-06
1.266148787e-06
1.268590598e-06
1.270887414e-06
1.27305045e-06
1.275088377e-06
1.277007608e-06
1.278812617e-06
1.28050633e-06
1.282090699e-06
1.283567436e-06
1.284938931e-06
1.286209329e-06
1.287406152e-06
1.288785416e-06
1.252688739e-06
7.912561955e-07
0.0002795679824
0.0007106816157
8.34214224e-07
1.004012674e-06
1.071953821e-06
1.111829504e-06
1.139076563e-06
1.159295228e-06
1.175105825e-06
1.187927754e-06
1.198608553e-06
1.207690987e-06
1.215541553e-06
1.222418236e-06
1.228508844e-06
1.233953953e-06
1.238861264e-06
1.243314941e-06
1.247381881e-06
1.251116017e-06
1.254561349e-06
1.257754104e-06
1.260724293e-06
1.263496842e-06
1.266092413e-06
1.268528e-06
1.270817365e-06
1.272971374e-06
1.274998278e-06
1.276903993e-06
1.278692433e-06
1.280365901e-06
1.281925702e-06
1.283372877e-06
1.284709089e-06
1.285937769e-06
1.287091648e-06
1.288283785e-06
1.24416944e-06
1.347650398e-06
0.0002854739915
0.000721800386
8.342169905e-07
1.004025259e-06
1.071957607e-06
1.111830579e-06
1.139075402e-06
1.15929216e-06
1.17510104e-06
1.187921356e-06
1.19860059e-06
1.207681465e-06
1.215530449e-06
1.2224055e-06
1.228494406e-06
1.233937722e-06
1.238843126e-06
1.243294763e-06
1.2473595e-06
1.251091237e-06
1.254533932e-06
1.25772375e-06
1.260690623e-06
1.263459367e-06
1.266050497e-06
1.268480809e-06
1.270763808e-06
1.272910038e-06
1.274927354e-06
1.276821212e-06
1.278595002e-06
1.280250461e-06
1.281788356e-06
1.283209239e-06
1.28451435e-06
1.285706985e-06
1.286826802e-06
1.287802679e-06
1.236178183e-06
1.853892531e-06
0.0002905883985
0.0007312490268
8.342249402e-07
1.00404281e-06
1.07196736e-06
1.111837977e-06
1.139080905e-06
1.159296076e-06
1.17510355e-06
1.187922562e-06
1.198600542e-06
1.207680178e-06
1.215527909e-06
1.222401672e-06
1.228489237e-06
1.233931139e-06
1.238835041e-06
1.243285067e-06
1.247348064e-06
1.251077904e-06
1.254518508e-06
1.257705993e-06
1.260670223e-06
1.263435917e-06
1.266023456e-06
1.268449457e-06
1.270727193e-06
1.272866906e-06
1.274876078e-06
1.27675973e-06
1.278520753e-06
1.28016036e-06
1.281678861e-06
1.283076458e-06
1.284354232e-06
1.285515866e-06
1.286609751e-06
1.287333896e-06
1.22812543e-06
2.319788545e-06
0.0002952438527
0.0007401741114
8.342384737e-07
1.00406512e-06
1.071983136e-06
1.111851742e-06
1.139093126e-06
1.159307042e-06
1.175113432e-06
1.187931461e-06
1.198608512e-06
1.207687243e-06
1.215534067e-06
1.222406905e-06
1.228493508e-06
1.233934398e-06
1.238837224e-06
1.243286094e-06
1.247347841e-06
1.251076316e-06
1.254515412e-06
1.257701209e-06
1.26066351e-06
1.263426954e-06
1.266011802e-06
1.268434506e-06
1.270708117e-06
1.27284259e-06
1.274845058e-06
1.27672013e-06
1.278470235e-06
1.280096097e-06
1.28159761e-06
1.282974717e-06
1.284228512e-06
1.285363493e-06
1.286438715e-06
1.286864306e-06
1.219543183e-06
2.744870754e-06
0.0002992947293
0.0007479036978
8.342581865e-07
1.004091876e-06
1.072004983e-06
1.1118719e-06
1.139112096e-06
1.159325098e-06
1.175130736e-06
1.187948114e-06
1.198624575e-06
1.207702749e-06
1.215549031e-06
1.222421324e-06
1.228507367e-06
1.233947671e-06
1.238849875e-06
1.243298078e-06
1.247359102e-06
1.251086785e-06
1.254525003e-06
1.257709806e-06
1.260670954e-06
1.263433016e-06
1.26601615e-06
1.268436657e-06
1.27070738e-06
1.272837992e-06
1.274835273e-06
1.276703421e-06
1.278444411e-06
1.280058511e-06
1.281545264e-06
1.282904436e-06
1.284137247e-06
1.285249337e-06
1.286312506e-06
1.286376688e-06
1.209882097e-06
3.147729008e-06
0.0003030766608
0.0007549889523
8.342839198e-07
1.004123243e-06
1.072032893e-06
1.111898457e-06
1.139137824e-06
1.159350257e-06
1.175155484e-06
1.187972553e-06
1.198648774e-06
1.207726755e-06
1.215572874e-06
1.222445022e-06
1.228530929e-06
1.233971099e-06
1.238873164e-06
1.243321222e-06
1.247382088e-06
1.251109599e-06
1.25454762e-06
1.257732186e-06
1.260693025e-06
1.263454652e-06
1.26603714e-06
1.268456659e-06
1.270725855e-06
1.272854134e-06
1.27484792e-06
1.276710978e-06
1.278444792e-06
1.280049139e-06
1.281523206e-06
1.282866667e-06
1.284080996e-06
1.285173354e-06
1.286230854e-06
1.285849115e-06
1.198734988e-06
3.522050196e-06
0.0003063555405
0.0007612887616
8.34314089e-07
1.004159906e-06
1.072066701e-06
1.111931349e-06
1.139170269e-06
1.15938249e-06
1.175187654e-06
1.188004765e-06
1.198681107e-06
1.207759271e-06
1.215605622e-06
1.222478043e-06
1.228564261e-06
1.234004774e-06
1.238907216e-06
1.243355687e-06
1.247417007e-06
1.251145016e-06
1.254583585e-06
1.257768744e-06
1.260730205e-06
1.26349245e-06
1.266075484e-06
1.268495362e-06
1.270764552e-06
1.272892198e-06
1.274884367e-06
1.276744371e-06
1.278473187e-06
1.280070027e-06
1.281533623e-06
1.282863509e-06
1.284061464e-06
1.285136669e-06
1.286194973e-06
1.285256515e-06
1.185562779e-06
3.877112519e-06
0.0003094207486
0.0007668928815
8.343486086e-07
1.004201783e-06
1.072106319e-06
1.1119705e-06
1.13920936e-06
1.159421732e-06
1.175227189e-06
1.188044703e-06
1.198721538e-06
1.207800273e-06
1.215647267e-06
1.2225204e-06
1.228607397e-06
1.234048759e-06
1.238952128e-06
1.243401613e-06
1.247464047e-06
1.251193288e-06
1.254633221e-06
1.25781989e-06
1.260783013e-06
1.263547058e-06
1.266131986e-06
1.268553762e-06
1.270824693e-06
1.272953667e-06
1.274946383e-06
1.276805663e-06
1.278531926e-06
1.280123758e-06
1.281579332e-06
1.282897941e-06
1.284081598e-06
1.285142076e-06
1.286208465e-06
1.284567812e-06
1.169901975e-06
4.21390121e-06
0.0003121122872
0.0007719237877
8.343874128e-07
1.004248784e-06
1.072151656e-06
1.112015814e-06
1.139255003e-06
1.159467891e-06
1.175274003e-06
1.188092287e-06
1.198769996e-06
1.207849704e-06
1.215697768e-06
1.222572069e-06
1.228660339e-06
1.234103088e-06
1.23900797e-06
1.243459115e-06
1.247523381e-06
1.251254654e-06
1.254696852e-06
1.257886053e-06
1.260852003e-06
1.263619186e-06
1.266207551e-06
1.268633001e-06
1.270907706e-06
1.273040311e-06
1.275036139e-06
1.276897475e-06
1.278624092e-06
1.280213849e-06
1.281664186e-06
1.282973991e-06
1.28414544e-06
1.285193681e-06
1.286276983e-06
1.283737749e-06
1.150929296e-06
4.540448951e-06
0.0003146335362
0.0007764197463
8.344304091e-07
1.004300794e-06
1.072202598e-06
1.112067174e-06
1.139307077e-06
1.159520848e-06
1.175327977e-06
1.188147403e-06
1.198826375e-06
1.207907467e-06
1.215757041e-06
1.222632988e-06
1.228723049e-06
1.234167752e-06
1.239074775e-06
1.243528277e-06
1.247595153e-06
1.251329337e-06
1.254774796e-06
1.257967669e-06
1.260937763e-06
1.263709611e-06
1.266303191e-06
1.268734384e-06
1.271015259e-06
1.273154242e-06
1.275156275e-06
1.277023063e-06
1.278753617e-06
1.280344922e-06
1.281793437e-06
1.283097326e-06
1.284258692e-06
1.285297098e-06
1.28640753e-06
1.28270398e-06
1.12769498e-06
4.871590714e-06
0.0003169224773
0.0007804472768
8.34477484e-07
1.004357673e-06
1.072258998e-06
1.112124427e-06
1.139365426e-06
1.159580443e-06
1.175388953e-06
1.188209895e-06
1.198890523e-06
1.20797342e-06
1.215824959e-06
1.222703044e-06
1.228795438e-06
1.234242696e-06
1.239152527e-06
1.243609134e-06
1.247679466e-06
1.25141752e-06
1.254867345e-06
1.258065167e-06
1.261040895e-06
1.263819159e-06
1.266420016e-06
1.268859381e-06
1.271149279e-06
1.273297955e-06
1.275309986e-06
1.277186461e-06
1.27892549e-06
1.280522969e-06
1.281974069e-06
1.283275732e-06
1.284429475e-06
1.285460283e-06
1.2866095e-06
1.281373336e-06
1.098703429e-06
5.224023972e-06
0.0003191458086
0.0007840880491
8.345285031e-07
1.004419251e-06
1.072320684e-06
1.112187393e-06
1.139429863e-06
1.159646484e-06
1.175456735e-06
1.188279567e-06
1.198962247e-06
1.208047375e-06
1.215901342e-06
1.222782075e-06
1.228877366e-06
1.234327806e-06
1.239241152e-06
1.243701664e-06
1.247776364e-06
1.25151934e-06
1.254974748e-06
1.258178947e-06
1.261161995e-06
1.263948679e-06
1.266559208e-06
1.269009611e-06
1.271311945e-06
1.273474353e-06
1.275501086e-06
1.277392605e-06
1.279145985e-06
1.280755743e-06
1.282215349e-06
1.283519839e-06
1.284669266e-06
1.285694748e-06
1.286890058e-06
1.279665606e-06
1.062460249e-06
5.603643738e-06
0.0003212188908
0.000787347742
8.345833113e-07
1.004485337e-06
1.072387451e-06
1.112255856e-06
1.139500164e-06
1.159718739e-06
1.175531086e-06
1.188356177e-06
1.199041305e-06
1.208129091e-06
1.215985957e-06
1.222869859e-06
1.228968629e-06
1.234422908e-06
1.239340512e-06
1.24380578e-06
1.247885828e-06
1.251634863e-06
1.255097194e-06
1.258309359e-06
1.261301627e-06
1.264099023e-06
1.266722001e-06
1.269186816e-06
1.271505684e-06
1.273686761e-06
1.275734072e-06
1.277647472e-06
1.279422913e-06
1.281053206e-06
1.28252954e-06
1.283844171e-06
1.284994364e-06
1.286017786e-06
1.287262655e-06
1.277639108e-06
1.018401416e-06
6.008369055e-06
0.000323170984
0.0007902236351
8.346417332e-07
1.004555712e-06
1.072459069e-06
1.112329572e-06
1.139576069e-06
1.159796939e-06
1.175611726e-06
1.18843944e-06
1.199127405e-06
1.208218277e-06
1.216078513e-06
1.222966113e-06
1.229068958e-06
1.234527753e-06
1.239450392e-06
1.24392131e-06
1.248007749e-06
1.251764074e-06
1.255234788e-06
1.258456673e-06
1.261460291e-06
1.264271003e-06
1.26690964e-06
1.269392835e-06
1.271733145e-06
1.273938934e-06
1.276014177e-06
1.277958237e-06
1.279765928e-06
1.281428055e-06
1.282932851e-06
1.284268613e-06
1.28542803e-06
1.28645528e-06
1.287751102e-06
1.275306104e-06
9.725080713e-07
6.42821983e-06
0.0003249574068
0.0007927012749
8.347035731e-07
1.004630135e-06
1.072535277e-06
1.112408261e-06
1.139657284e-06
1.159880774e-06
1.175698333e-06
1.188529021e-06
1.199220205e-06
1.208314584e-06
1.21617866e-06
1.223070488e-06
1.229178012e-06
1.234642015e-06
1.239570489e-06
1.244047992e-06
1.248141924e-06
1.251906848e-06
1.255387525e-06
1.258621052e-06
1.261638383e-06
1.264465351e-06
1.267123327e-06
1.269629543e-06
1.271997154e-06
1.274235031e-06
1.276347405e-06
1.278333417e-06
1.280186869e-06
1.281896401e-06
1.283446628e-06
1.284820445e-06
1.286003611e-06
1.287046342e-06
1.288395109e-06
1.272679182e-06
9.267101603e-07
6.845960249e-06
0.0003265978347
0.0007947610286
8.347686162e-07
1.00470834e-06
1.072615788e-06
1.112491615e-06
1.139743481e-06
1.159969897e-06
1.175790543e-06
1.188624542e-06
1.199319313e-06
1.208417607e-06
1.216285985e-06
1.223182565e-06
1.229295372e-06
1.234765281e-06
1.239700405e-06
1.244185455e-06
1.248288027e-06
1.252062933e-06
1.255555257e-06
1.258802507e-06
1.26183615e-06
1.264682655e-06
1.267364158e-06
1.269898778e-06
1.272300636e-06
1.274579557e-06
1.276740533e-06
1.278782993e-06
1.280700144e-06
1.282478597e-06
1.284098879e-06
1.285537031e-06
1.286769059e-06
1.287850214e-06
1.289259035e-06
1.269840142e-06
8.824104499e-07
7.235321944e-06
0.0003280773708
0.0007964016621
8.348366293e-07
1.004790039e-06
1.072700288e-06
1.112579297e-06
1.139834299e-06
1.160063925e-06
1.175887952e-06
1.188725576e-06
1.199424282e-06
1.208526884e-06
1.216400008e-06
1.223301854e-06
1.229420536e-06
1.234897045e-06
1.239839638e-06
1.244333211e-06
1.248445598e-06
1.252231923e-06
1.255737667e-06
1.259000858e-06
1.262053628e-06
1.264923289e-06
1.267633025e-06
1.270202228e-06
1.272646493e-06
1.274977248e-06
1.277201041e-06
1.279318489e-06
1.281323103e-06
1.28320017e-06
1.284926232e-06
1.286469428e-06
1.287793252e-06
1.288956879e-06
1.290449668e-06
1.266934737e-06
8.410354694e-07
7.558638694e-06
0.0003293757334
0.0007976186955
8.349073626e-07
1.004874926e-06
1.072788441e-06
1.112670939e-06
1.139929343e-06
1.160162437e-06
1.175990114e-06
1.188831653e-06
1.199534617e-06
1.208641894e-06
1.216520189e-06
1.22342779e-06
1.229552919e-06
1.235036704e-06
1.23998757e-06
1.244490637e-06
1.248614027e-06
1.252413234e-06
1.255934231e-06
1.259215687e-06
1.262290583e-06
1.265187328e-06
1.267930512e-06
1.270541291e-06
1.27303743e-06
1.275432885e-06
1.277736962e-06
1.27995294e-06
1.282076336e-06
1.284092838e-06
1.285976331e-06
1.287687235e-06
1.289174938e-06
1.290502797e-06