/*--------------------------------*- C++ -*----------------------------------*\
| =========                 |                                                 |
| \\      /  F ield         | OpenFOAM: The Open Source CFD Toolbox           |
|  \\    /   O peration     | Version:  v1912                                 |
|   \\  /    A nd           | Website:  www.openfoam.com                      |
|    \\/     M anipulation  |                                                 |
\*---------------------------------------------------------------------------*/
FoamFile
{
    version     2.0;
    format      ascii;
    class       volScalarField;
    location    "0.3";
    object      nut.gas;
}
// * * * * * * * * * * * * * * * * * * * * * * * * * * * * * * * * * * * * * //

dimensions      [0 2 -1 0 0 0 0];


internalField   nonuniform List<scalar> 
4800
(
1.246289613e-08
2.318800646e-08
3.069192864e-08
3.682778087e-08
4.215947975e-08
4.694869093e-08
5.134369272e-08
5.543910813e-08
5.930058242e-08
6.297673231e-08
6.650562051e-08
6.991858451e-08
7.324268468e-08
7.650238064e-08
7.972077523e-08
8.292060935e-08
8.61251327e-08
8.935893001e-08
9.264877304e-08
9.602455729e-08
9.952038973e-08
1.031759051e-07
1.070379093e-07
1.111624891e-07
1.156177764e-07
1.204876438e-07
1.258767484e-07
1.319175525e-07
1.387803108e-07
1.466876308e-07
1.559362854e-07
1.669309296e-07
1.802383409e-07
1.966739511e-07
2.175189469e-07
2.442243682e-07
2.819657337e-07
3.434935948e-07
2.74019285e-07
6.988989358e-07
2.125459838e-08
4.042495121e-08
5.395115635e-08
6.502761268e-08
7.464391331e-08
8.326051192e-08
9.113708452e-08
9.843727105e-08
1.05272131e-07
1.117211715e-07
1.178436594e-07
1.236852027e-07
1.29281815e-07
1.346625528e-07
1.398512929e-07
1.448679736e-07
1.497294867e-07
1.544503364e-07
1.590431385e-07
1.635190101e-07
1.67887883e-07
1.721587656e-07
1.763399738e-07
1.80439349e-07
1.844644767e-07
1.884229354e-07
1.923225966e-07
1.961720264e-07
1.999810634e-07
2.037617021e-07
2.075295324e-07
2.113061928e-07
2.151243602e-07
2.190234375e-07
2.233157703e-07
2.250635164e-07
2.524594416e-07
2.812392904e-07
5.799157781e-07
1.501696932e-06
2.069332569e-08
3.931426808e-08
5.244800051e-08
6.320278794e-08
7.254009582e-08
8.090695654e-08
8.855533668e-08
9.564394016e-08
1.022804233e-07
1.085418145e-07
1.144854966e-07
1.201555919e-07
1.255869067e-07
1.308074864e-07
1.358403393e-07
1.407046371e-07
1.454165763e-07
1.499900138e-07
1.544369458e-07
1.587678797e-07
1.629921306e-07
1.671180668e-07
1.711533238e-07
1.751050005e-07
1.789798593e-07
1.827845462e-07
1.865258615e-07
1.902111245e-07
1.938487066e-07
1.974488589e-07
2.010250682e-07
2.045963749e-07
2.081918752e-07
2.118506332e-07
2.157591468e-07
2.190441301e-07
2.275450489e-07
1.729810056e-07
6.247512829e-07
1.823675668e-06
2.0726266e-08
3.937892921e-08
5.253500743e-08
6.330801613e-08
7.266108065e-08
8.104203883e-08
8.870332219e-08
9.580393484e-08
1.024517427e-07
1.087239296e-07
1.14677999e-07
1.203581714e-07
1.25799336e-07
1.310296113e-07
1.360720717e-07
1.409459515e-07
1.456675088e-07
1.502506623e-07
1.547074731e-07
1.59048518e-07
1.632831887e-07
1.674199394e-07
1.714665033e-07
1.754300928e-07
1.79317602e-07
1.831358305e-07
1.868917557e-07
1.905928947e-07
1.94247822e-07
1.978669513e-07
2.014637716e-07
2.0505686e-07
2.086735512e-07
2.123485748e-07
2.162510655e-07
2.196933425e-07
2.205860661e-07
2.643789801e-07
5.285330377e-07
2.05335773e-06
2.072315527e-08
3.937299308e-08
5.252697781e-08
6.329827269e-08
7.264982458e-08
8.102939882e-08
8.868938389e-08
9.578875535e-08
1.024353584e-07
1.087063609e-07
1.14659253e-07
1.203382439e-07
1.257782121e-07
1.310072661e-07
1.360484698e-07
1.409210466e-07
1.456412425e-07
1.502229625e-07
1.546782512e-07
1.590176653e-07
1.632505711e-07
1.673853903e-07
1.714298126e-07
1.753909919e-07
1.792757404e-07
1.830907402e-07
1.868427956e-07
1.905391588e-07
1.941879847e-07
1.977989944e-07
2.013844848e-07
2.049608967e-07
2.08551323e-07
2.12188778e-07
2.159198682e-07
2.200837221e-07
2.214600435e-07
1.892195625e-07
9.567410184e-07
2.240537039e-06
2.072235012e-08
3.937159871e-08
5.252505499e-08
6.329592087e-08
7.264707623e-08
8.102627079e-08
8.868588298e-08
9.578488113e-08
1.024311049e-07
1.087017173e-07
1.146542043e-07
1.203327711e-07
1.257722919e-07
1.310008706e-07
1.360415665e-07
1.40913597e-07
1.456332015e-07
1.502142763e-07
1.546688552e-07
1.590074812e-07
1.632395018e-07
1.673733137e-07
1.714165721e-07
1.753763818e-07
1.79259485e-07
1.830724601e-07
1.868219549e-07
1.905149795e-07
1.941593018e-07
1.977640084e-07
2.013403242e-07
2.049028343e-07
2.084712978e-07
2.120746746e-07
2.157044987e-07
2.205510371e-07
2.129038621e-07
2.017843083e-07
7.866648227e-07
2.422865455e-06
2.072142029e-08
3.936996308e-08
5.25227863e-08
6.329314031e-08
7.26438251e-08
8.102257184e-08
8.868174695e-08
9.578031028e-08
1.024260949e-07
1.086962583e-07
1.146482815e-07
1.203263649e-07
1.257653778e-07
1.309934191e-07
1.360335421e-07
1.409049577e-07
1.45623897e-07
1.502042466e-07
1.546580277e-07
1.589957665e-07
1.632267891e-07
1.673594627e-07
1.714014022e-07
1.753596561e-07
1.792408861e-07
1.83051554e-07
1.86798134e-07
1.904873731e-07
1.941266315e-07
1.977243503e-07
2.012907131e-07
2.048386025e-07
2.083850225e-07
2.119527117e-07
2.155681647e-07
2.198555854e-07
2.110931409e-07
2.490274959e-07
9.990990676e-07
2.625037779e-06
2.072052146e-08
3.93683933e-08
5.252058715e-08
6.329043541e-08
7.264065346e-08
8.10189548e-08
8.867769428e-08
9.577582347e-08
1.024211689e-07
1.086908827e-07
1.146424409e-07
1.203200388e-07
1.25758541e-07
1.30986041e-07
1.360255861e-07
1.408963801e-07
1.456146455e-07
1.501942582e-07
1.546472257e-07
1.589840567e-07
1.632140537e-07
1.673455522e-07
1.713861236e-07
1.753427562e-07
1.792220263e-07
1.830302728e-07
1.867737906e-07
1.904590602e-07
1.94093039e-07
1.976835508e-07
2.012398233e-07
2.047732507e-07
2.082985437e-07
2.118339033e-07
2.154504946e-07
2.181894193e-07
2.329203276e-07
4.631694499e-07
1.259460165e-06
2.810376126e-06
2.071964583e-08
3.936687378e-08
5.251843714e-08
6.328778187e-08
7.263753372e-08
8.101538926e-08
8.867369202e-08
9.577138543e-08
1.024162896e-07
1.086855512e-07
1.146366412e-07
1.203137501e-07
1.257517375e-07
1.309786911e-07
1.360176521e-07
1.40887817e-07
1.456053992e-07
1.501842634e-07
1.546364027e-07
1.58972307e-07
1.63201254e-07
1.673315457e-07
1.713707081e-07
1.753256665e-07
1.792029087e-07
1.830086488e-07
1.867490014e-07
1.904301846e-07
1.940587689e-07
1.97642002e-07
2.011882489e-07
2.04707611e-07
2.082128528e-07
2.117202728e-07
2.152589672e-07
2.190530057e-07
2.151569729e-07
2.431085384e-07
1.010873895e-06
2.9869693e-06
2.071879591e-08
3.936540935e-08
5.251634358e-08
6.328518911e-08
7.263447729e-08
8.101188858e-08
8.866975549e-08
9.576701347e-08
1.024114763e-07
1.086802853e-07
1.146309064e-07
1.203075251e-07
1.257449959e-07
1.309714011e-07
1.360097753e-07
1.408793074e-07
1.455962017e-07
1.50174311e-07
1.546256136e-07
1.5896058e-07
1.631884622e-07
1.673175277e-07
1.713552558e-07
1.753085076e-07
1.791836822e-07
1.829868688e-07
1.867240057e-07
1.904010582e-07
1.940242327e-07
1.976002478e-07
2.011366961e-07
2.046425502e-07
2.08128911e-07
2.116101118e-07
2.150993895e-07
2.189812949e-07
2.171368071e-07
1.340746074e-07
1.294423653e-06
3.160942871e-06
2.071797358e-08
3.936400354e-08
5.251431208e-08
6.328266447e-08
7.263149326e-08
8.100846354e-08
8.866589719e-08
9.576272187e-08
1.024067452e-07
1.08675103e-07
1.146252564e-07
1.203013861e-07
1.257383413e-07
1.309641987e-07
1.360019864e-07
1.408708856e-07
1.455870912e-07
1.501644442e-07
1.546149076e-07
1.589489322e-07
1.631757436e-07
1.673035749e-07
1.71339858e-07
1.752913901e-07
1.791644825e-07
1.829651024e-07
1.866990183e-07
1.903719564e-07
1.939897848e-07
1.975587405e-07
2.01085727e-07
2.045787254e-07
2.080473902e-07
2.115041731e-07
2.149491156e-07
2.190583247e-07
2.116677932e-07
1.588772966e-07
1.537019303e-06
3.327452586e-06
2.071718072e-08
3.936265988e-08
5.251234833e-08
6.32802155e-08
7.262859092e-08
8.10051252e-08
8.866212997e-08
9.575852528e-08
1.024021127e-07
1.08670023e-07
1.146197121e-07
1.202953561e-07
1.257317991e-07
1.30957112e-07
1.359943167e-07
1.408625865e-07
1.455781069e-07
1.501547069e-07
1.546043344e-07
1.589374201e-07
1.631631638e-07
1.672897636e-07
1.713246049e-07
1.75274422e-07
1.791454404e-07
1.829435104e-07
1.866742388e-07
1.903431286e-07
1.939557369e-07
1.975178652e-07
2.010358038e-07
2.045166621e-07
2.079688316e-07
2.114031073e-07
2.148061274e-07
2.192657979e-07
2.010949791e-07
2.399198905e-07
1.748929392e-06
3.483277783e-06
2.071641923e-08
3.936138188e-08
5.251045801e-08
6.327784971e-08
7.262577959e-08
8.100188468e-08
8.865846673e-08
9.575443847e-08
1.023975956e-07
1.086650637e-07
1.146142942e-07
1.202894581e-07
1.257253947e-07
1.309501694e-07
1.359867976e-07
1.40854445e-07
1.455692876e-07
1.501451428e-07
1.545939431e-07
1.589260998e-07
1.631507867e-07
1.672761679e-07
1.713095832e-07
1.752577058e-07
1.791266789e-07
1.829222413e-07
1.866498484e-07
1.903147963e-07
1.939223584e-07
1.974779453e-07
2.00987304e-07
2.0445678e-07
2.078936716e-07
2.113071905e-07
2.146801106e-07
2.19218069e-07
1.955531645e-07
2.867943522e-07
1.936683345e-06
3.62868081e-06
2.071569095e-08
3.936017295e-08
5.250864676e-08
6.32755746e-08
7.262306858e-08
8.099875307e-08
8.865492038e-08
9.575047618e-08
1.023932105e-07
1.086602441e-07
1.146090235e-07
1.202837153e-07
1.257191538e-07
1.309433991e-07
1.359794602e-07
1.408464956e-07
1.455606717e-07
1.501357946e-07
1.545837818e-07
1.589150254e-07
1.631386742e-07
1.672628588e-07
1.712948753e-07
1.752413379e-07
1.791083118e-07
1.829014306e-07
1.866260088e-07
1.902871525e-07
1.938898786e-07
1.974392487e-07
2.009405318e-07
2.043994097e-07
2.078222419e-07
2.112168408e-07
2.14565276e-07
2.19106964e-07
1.907515734e-07
3.389135807e-07
2.106991836e-06
3.764061148e-06
2.071499774e-08
3.935903645e-08
5.250692013e-08
6.327339758e-08
7.26204671e-08
8.099574138e-08
8.865150373e-08
9.574665308e-08
1.02388974e-07
1.086555824e-07
1.146039206e-07
1.202781504e-07
1.257131016e-07
1.309368289e-07
1.359723354e-07
1.408387721e-07
1.455522968e-07
1.501267039e-07
1.54573897e-07
1.589042492e-07
1.631268851e-07
1.672499034e-07
1.712805579e-07
1.752254073e-07
1.790904425e-07
1.828811994e-07
1.86602862e-07
1.902603633e-07
1.938584895e-07
1.974019933e-07
2.008957268e-07
2.043448024e-07
2.07754785e-07
2.111322619e-07
2.14461014e-07
2.189619006e-07
1.850411353e-07
4.132379146e-07
2.262950282e-06
3.890208676e-06
2.071434141e-08
3.935797562e-08
5.25052836e-08
6.327132594e-08
7.261798425e-08
8.099286048e-08
8.864822946e-08
9.574298366e-08
1.023849025e-07
1.086510972e-07
1.145990058e-07
1.20272786e-07
1.257072628e-07
1.309304861e-07
1.35965453e-07
1.408313076e-07
1.45544199e-07
1.50117911e-07
1.54564333e-07
1.588938207e-07
1.63115475e-07
1.672373643e-07
1.712667023e-07
1.752099951e-07
1.790731644e-07
1.828616548e-07
1.86580531e-07
1.90234569e-07
1.938283485e-07
1.973663512e-07
2.008530699e-07
2.042931357e-07
2.076914574e-07
2.110536137e-07
2.143659015e-07
2.187764588e-07
1.807514015e-07
4.831219586e-07
2.405047027e-06
4.008075613e-06
2.071372373e-08
3.935699364e-08
5.250374252e-08
6.326936685e-08
7.261562894e-08
8.099012105e-08
8.864510999e-08
9.573948214e-08
1.023810119e-07
1.086468063e-07
1.145942991e-07
1.202676439e-07
1.257016616e-07
1.309243971e-07
1.35958842e-07
1.408241338e-07
1.455364133e-07
1.50109454e-07
1.545551322e-07
1.588837865e-07
1.631044957e-07
1.672252993e-07
1.712533734e-07
1.751951746e-07
1.790565599e-07
1.828428902e-07
1.865591207e-07
1.902098857e-07
1.937995818e-07
1.973324537e-07
2.008126881e-07
2.042445177e-07
2.07632327e-07
2.109809127e-07
2.142794435e-07
2.185707547e-07
1.776351975e-07
5.519329774e-07
2.533719886e-06
4.122492825e-06
2.071314647e-08
3.935609353e-08
5.250230209e-08
6.326752727e-08
7.261340989e-08
8.098753351e-08
8.864215747e-08
9.57361624e-08
1.02377318e-07
1.086427271e-07
1.145898198e-07
1.202627457e-07
1.256963215e-07
1.309185876e-07
1.359525305e-07
1.408172812e-07
1.455289729e-07
1.501013693e-07
1.545463343e-07
1.588741901e-07
1.630939952e-07
1.672137615e-07
1.712406299e-07
1.751810108e-07
1.790407016e-07
1.828249857e-07
1.865387188e-07
1.901864079e-07
1.937722869e-07
1.973003953e-07
2.007746606e-07
2.041989913e-07
2.07577369e-07
2.109140321e-07
2.142010882e-07
2.183577184e-07
1.757555598e-07
6.193879821e-07
2.650220743e-06
4.233445397e-06
2.071261134e-08
3.935527821e-08
5.250096736e-08
6.326581398e-08
7.261133554e-08
8.0985108e-08
8.863938371e-08
9.573303794e-08
1.02373836e-07
1.086388768e-07
1.145855867e-07
1.202581118e-07
1.256912649e-07
1.309130822e-07
1.359465452e-07
1.408107789e-07
1.455219094e-07
1.500936911e-07
1.545379763e-07
1.588650721e-07
1.630840174e-07
1.672027989e-07
1.712285242e-07
1.751675612e-07
1.790256521e-07
1.828080092e-07
1.865193978e-07
1.901642103e-07
1.937465371e-07
1.972702392e-07
2.007390255e-07
2.041565431e-07
2.075264721e-07
2.108526865e-07
2.141301093e-07
2.181470213e-07
1.750732572e-07
6.86072949e-07
2.756957675e-06
4.335126245e-06
2.071212001e-08
3.935455042e-08
5.249974319e-08
6.32642335e-08
7.260941404e-08
8.098285426e-08
8.863680008e-08
9.573012175e-08
1.023705805e-07
1.086352715e-07
1.145816178e-07
1.202537621e-07
1.256865136e-07
1.309079045e-07
1.359409115e-07
1.408046545e-07
1.455152525e-07
1.500864515e-07
1.545300928e-07
1.588564696e-07
1.630746026e-07
1.671924548e-07
1.712171034e-07
1.751548764e-07
1.790114653e-07
1.827920175e-07
1.865012162e-07
1.90143351e-07
1.937223847e-07
1.972420228e-07
2.00705789e-07
2.041171169e-07
2.0747946e-07
2.107964664e-07
2.140656071e-07
2.179432889e-07
1.75618223e-07
7.524393503e-07
2.854899428e-06
4.42351576e-06
2.071167411e-08
3.935391276e-08
5.249863422e-08
6.326279206e-08
7.260765322e-08
8.098078168e-08
8.863441751e-08
9.572742633e-08
1.023675655e-07
1.08631927e-07
1.145779305e-07
1.202497157e-07
1.256820883e-07
1.309030767e-07
1.359356538e-07
1.40798934e-07
1.455090301e-07
1.500796803e-07
1.545227158e-07
1.588484169e-07
1.630657873e-07
1.671827683e-07
1.712064087e-07
1.75143e-07
1.789981871e-07
1.827770579e-07
1.864842212e-07
1.901238738e-07
1.936998651e-07
1.972157642e-07
2.006749346e-07
2.040806303e-07
2.074361239e-07
2.107449088e-07
2.140066008e-07
2.177497603e-07
1.774089829e-07
8.189126925e-07
2.945563217e-06
4.505137333e-06
2.071127521e-08
3.935336764e-08
5.249764487e-08
6.326149559e-08
7.260606048e-08
8.097889916e-08
8.863224639e-08
9.572496356e-08
1.023648046e-07
1.086288582e-07
1.145745412e-07
1.202459904e-07
1.256780084e-07
1.308986202e-07
1.359307947e-07
1.407936417e-07
1.455032683e-07
1.500734054e-07
1.54515875e-07
1.588409454e-07
1.630576048e-07
1.671737744e-07
1.711964768e-07
1.751319702e-07
1.789858563e-07
1.827631692e-07
1.864684496e-07
1.90105811e-07
1.936790011e-07
1.971914674e-07
2.006464324e-07
2.040469922e-07
2.073962573e-07
2.106975776e-07
2.139522097e-07
2.175691808e-07
1.80454364e-07
8.852401051e-07
3.028936078e-06
4.593244099e-06
2.071092487e-08
3.935291724e-08
5.24967793e-08
6.326034969e-08
7.260464287e-08
8.097721513e-08
8.863029656e-08
9.572274469e-08
1.023623102e-07
1.086260791e-07
1.145714655e-07
1.202426033e-07
1.256742925e-07
1.308945549e-07
1.359263558e-07
1.407888007e-07
1.454979917e-07
1.500676528e-07
1.545095978e-07
1.58834084e-07
1.630500853e-07
1.671655045e-07
1.711873404e-07
1.751218201e-07
1.789745063e-07
1.827503835e-07
1.864539309e-07
1.900891861e-07
1.936598055e-07
1.971691275e-07
2.006202473e-07
2.04016116e-07
2.073596849e-07
2.106541324e-07
2.139018439e-07
2.174006972e-07
1.851334006e-07
9.488006212e-07
3.106230481e-06
4.705237822e-06
2.071062458e-08
3.93525635e-08
5.24960414e-08
6.325935958e-08
7.260340693e-08
8.097573751e-08
8.862857725e-08
9.572078031e-08
1.023600945e-07
1.086236032e-07
1.145687181e-07
1.202395706e-07
1.256709581e-07
1.308908996e-07
1.359223572e-07
1.407844326e-07
1.454932231e-07
1.500624468e-07
1.545039097e-07
1.588278593e-07
1.630432565e-07
1.671579873e-07
1.711790284e-07
1.751125789e-07
1.789641655e-07
1.827387275e-07
1.86440688e-07
1.90074016e-07
1.936422848e-07
1.971487343e-07
2.005963437e-07
2.039879278e-07
2.073262767e-07
2.106143616e-07
2.138553613e-07
2.172313444e-07
1.920938368e-07
1.036082393e-06
3.174961913e-06
4.766385611e-06
2.071037584e-08
3.935230811e-08
5.249543478e-08
6.325853011e-08
7.260235876e-08
8.097447361e-08
8.862709708e-08
9.571908029e-08
1.023581685e-07
1.086214428e-07
1.145663126e-07
1.202369071e-07
1.256680214e-07
1.30887672e-07
1.35918818e-07
1.407805577e-07
1.454889841e-07
1.5005781e-07
1.544988346e-07
1.588222962e-07
1.630371442e-07
1.671512489e-07
1.711715674e-07
1.751042728e-07
1.789548591e-07
1.827282243e-07
1.864287402e-07
1.900603132e-07
1.936264416e-07
1.971302757e-07
2.005746888e-07
2.039623686e-07
2.072959457e-07
2.105781685e-07
2.13812535e-07
2.170983662e-07
2.00404143e-07
1.123337357e-06
3.233628845e-06
4.764602441e-06
2.071018013e-08
3.93521524e-08
5.249496272e-08
6.325786567e-08
7.260150393e-08
8.097343021e-08
8.862586396e-08
9.571765376e-08
1.023565426e-07
1.086196095e-07
1.145642619e-07
1.202346271e-07
1.256654979e-07
1.308848888e-07
1.35915756e-07
1.40777195e-07
1.45485295e-07
1.50053764e-07
1.544943949e-07
1.588174182e-07
1.630317724e-07
1.671453142e-07
1.711649823e-07
1.750969265e-07
1.789466106e-07
1.82718895e-07
1.864181045e-07
1.900480886e-07
1.936122773e-07
1.971137398e-07
2.005552536e-07
2.039393907e-07
2.072686336e-07
2.105455187e-07
2.137736709e-07
2.170029573e-07
2.097814957e-07
1.207199002e-06
3.285095042e-06
4.814234255e-06
2.071003902e-08
3.935209732e-08
5.24946282e-08
6.325737025e-08
7.260084749e-08
8.09726134e-08
8.862488512e-08
9.571650905e-08
1.023552263e-07
1.08618114e-07
1.145625779e-07
1.202327435e-07
1.256634018e-07
1.308825653e-07
1.359131881e-07
1.407743627e-07
1.454821751e-07
1.500503291e-07
1.544906123e-07
1.588132478e-07
1.630271646e-07
1.671402071e-07
1.711592973e-07
1.750905639e-07
1.789394431e-07
1.827107604e-07
1.864087981e-07
1.900373533e-07
1.935997941e-07
1.970991167e-07
2.005380131e-07
2.039189543e-07
2.072442942e-07
2.105163921e-07
2.137390127e-07
2.169438118e-07
2.178511691e-07
1.083266079e-06
3.329883136e-06
4.842561661e-06
2.07099542e-08
3.935214332e-08
5.249443387e-08
6.325704733e-08
7.260039389e-08
8.097202865e-08
8.862416703e-08
9.571565367e-08
1.023542281e-07
1.086169659e-07
1.145612713e-07
1.202312683e-07
1.256617464e-07
1.308807162e-07
1.359111299e-07
1.407720778e-07
1.454796428e-07
1.500475251e-07
1.544875075e-07
1.588098068e-07
1.630233438e-07
1.671359514e-07
1.711545369e-07
1.750852096e-07
1.789333804e-07
1.827038431e-07
1.864008402e-07
1.900281211e-07
1.935889977e-07
1.970864005e-07
2.005229474e-07
2.039010242e-07
2.072228819e-07
2.104907503e-07
2.137086607e-07
2.168998581e-07
2.168366459e-07
4.473049907e-07
3.369392713e-06
4.891214234e-06
2.070992769e-08
3.935229019e-08
5.249438206e-08
6.325689994e-08
7.260014699e-08
8.097168071e-08
8.862371535e-08
9.571509426e-08
1.023535556e-07
1.086161739e-07
1.14560352e-07
1.202302126e-07
1.256605439e-07
1.30879355e-07
1.359095965e-07
1.407703565e-07
1.454777156e-07
1.500453709e-07
1.54485101e-07
1.588071172e-07
1.630203331e-07
1.671325715e-07
1.711507266e-07
1.750808898e-07
1.789284491e-07
1.826981687e-07
1.863942544e-07
1.900204116e-07
1.935799006e-07
1.970755933e-07
2.00510044e-07
2.038855703e-07
2.072043477e-07
2.104685285e-07
2.136825554e-07
2.168576424e-07
2.160982833e-07
4.352285115e-07
3.403973776e-06
4.918840212e-06
2.070996203e-08
3.935253682e-08
5.249447475e-08
6.325693052e-08
7.260010999e-08
8.097157356e-08
8.86235349e-08
9.57148365e-08
1.023532156e-07
1.086157457e-07
1.145598287e-07
1.202295863e-07
1.256598055e-07
1.308784942e-07
1.359086016e-07
1.407692142e-07
1.454764105e-07
1.50043885e-07
1.544834129e-07
1.588052009e-07
1.630181562e-07
1.67130093e-07
1.711478935e-07
1.750776331e-07
1.789246787e-07
1.826937671e-07
1.863890701e-07
1.90014252e-07
1.935725255e-07
1.970667088e-07
2.004993023e-07
2.038725715e-07
2.071886429e-07
2.104496415e-07
2.136605694e-07
2.168171461e-07
2.154039686e-07
4.411233614e-07
3.434257695e-06
4.952673192e-06
2.071006071e-08
3.935288078e-08
5.249471357e-08
6.325714098e-08
7.260028537e-08
8.097171034e-08
8.862362956e-08
9.571488508e-08
1.023532136e-07
1.086156878e-07
1.145597091e-07
1.202293981e-07
1.256595412e-07
1.308781451e-07
1.359081581e-07
1.407686653e-07
1.454757436e-07
1.500430855e-07
1.544824632e-07
1.588040799e-07
1.630168373e-07
1.67128542e-07
1.711460657e-07
1.750754695e-07
1.78922101e-07
1.826906718e-07
1.863853219e-07
1.900096772e-07
1.93566905e-07
1.970597741e-07
2.004907384e-07
2.038620233e-07
2.071757292e-07
2.104339993e-07
2.136425495e-07
2.167776799e-07
2.147023252e-07
4.520981289e-07
3.461302214e-06
4.975357036e-06
2.07102287e-08
3.9353318e-08
5.249509983e-08
6.325753254e-08
7.260067481e-08
8.09720933e-08
8.86240022e-08
9.571524357e-08
1.023535539e-07
1.086160055e-07
1.145599993e-07
1.202296554e-07
1.256597596e-07
1.30878318e-07
1.359082778e-07
1.407687235e-07
1.454757306e-07
1.500429903e-07
1.544822726e-07
1.588037779e-07
1.630164033e-07
1.671279492e-07
1.71145278e-07
1.750744377e-07
1.78920758e-07
1.826889268e-07
1.863830543e-07
1.900067305e-07
1.935630807e-07
1.970548279e-07
2.004843834e-07
2.038539405e-07
2.071655891e-07
2.104215276e-07
2.136283487e-07
2.167381385e-07
2.139521291e-07
4.646589497e-07
3.485041404e-06
4.997637394e-06
2.071047338e-08
3.935384233e-08
5.249563476e-08
6.325810599e-08
7.260127934e-08
8.097272384e-08
8.862465471e-08
9.571591447e-08
1.023542397e-07
1.086167028e-07
1.145607044e-07
1.202303645e-07
1.256604684e-07
1.308790219e-07
1.359089718e-07
1.407694019e-07
1.454763873e-07
1.50043618e-07
1.544828631e-07
1.588043206e-07
1.630168845e-07
1.671283501e-07
1.711455719e-07
1.750745862e-07
1.789207061e-07
1.826885969e-07
1.86382339e-07
1.900054871e-07
1.935611258e-07
1.97051935e-07
2.00480289e-07
2.03848357e-07
2.071582279e-07
2.104121834e-07
2.136178691e-07
2.166970714e-07
2.131045236e-07
4.777372449e-07
3.507164511e-06
5.016400292e-06
2.07107928e-08
3.935445701e-08
5.249631813e-08
6.325886143e-08
7.260209924e-08
8.097360247e-08
8.862558792e-08
9.571689902e-08
1.023552729e-07
1.086177823e-07
1.145618279e-07
1.202315299e-07
1.256616734e-07
1.308802643e-07
1.359102493e-07
1.407707121e-07
1.454777277e-07
1.500449861e-07
1.544842557e-07
1.588057335e-07
1.630183115e-07
1.671297811e-07
1.711469907e-07
1.750759665e-07
1.789220067e-07
1.826897552e-07
1.863832635e-07
1.900060494e-07
1.935611547e-07
1.970512136e-07
2.004785637e-07
2.038453563e-07
2.071536906e-07
2.104059635e-07
2.136110891e-07
2.166526306e-07
2.121222716e-07
4.905343874e-07
3.526374987e-06
5.031698504e-06
2.071116726e-08
3.935517547e-08
5.249714588e-08
6.325979709e-08
7.260313315e-08
8.097472808e-08
8.862680096e-08
9.57181967e-08
1.023566534e-07
1.086192445e-07
1.145633711e-07
1.202331538e-07
1.256633781e-07
1.308820501e-07
1.359121171e-07
1.407726631e-07
1.454797639e-07
1.500471098e-07
1.5448647e-07
1.588080415e-07
1.630207154e-07
1.671322811e-07
1.711495824e-07
1.750786374e-07
1.78924731e-07
1.826924868e-07
1.863859278e-07
1.900085343e-07
1.935633042e-07
1.970528214e-07
2.004793785e-07
2.038451054e-07
2.071521151e-07
2.104029605e-07
2.136081096e-07
2.166027013e-07
2.109555828e-07
5.029471867e-07
3.544538915e-06
5.044661235e-06
2.071159572e-08
3.935599607e-08
5.249811589e-08
6.326091076e-08
7.260437884e-08
8.097609845e-08
8.862829172e-08
9.57198056e-08
1.023583796e-07
1.086210882e-07
1.145653335e-07
1.202352367e-07
1.256655842e-07
1.308843827e-07
1.359145806e-07
1.40775263e-07
1.454825069e-07
1.500500044e-07
1.54489526e-07
1.588112703e-07
1.630241295e-07
1.671358927e-07
1.711534014e-07
1.750826676e-07
1.78928965e-07
1.82696898e-07
1.863904611e-07
1.900130951e-07
1.935677508e-07
1.970569569e-07
2.004829538e-07
2.03847841e-07
2.071537391e-07
2.104034032e-07
2.1360923e-07
2.165446605e-07
2.095598701e-07
5.148706516e-07
3.560547723e-06
5.055639541e-06
2.071207734e-08
3.935691708e-08
5.24992259e-08
6.326219974e-08
7.26058333e-08
8.097771038e-08
8.863005692e-08
9.572172249e-08
1.023604485e-07
1.086233109e-07
1.145677131e-07
1.202377775e-07
1.256682917e-07
1.308872638e-07
1.359176435e-07
1.407785181e-07
1.454859667e-07
1.50053684e-07
1.544934436e-07
1.588154471e-07
1.630285898e-07
1.67140663e-07
1.711585086e-07
1.750881357e-07
1.789348089e-07
1.827031156e-07
1.863970219e-07
1.900199266e-07
1.935747276e-07
1.970638909e-07
2.004895907e-07
2.038538829e-07
2.071588886e-07
2.104076275e-07
2.136149194e-07
2.164746857e-07
2.078562458e-07
5.261670938e-07
3.575504439e-06
5.0646179e-06
2.071261099e-08
3.935793623e-08
5.25004731e-08
6.326366062e-08
7.260749263e-08
8.097955959e-08
8.863209204e-08
9.572394273e-08
1.023628555e-07
1.086259082e-07
1.145705061e-07
1.202407731e-07
1.256714986e-07
1.308906928e-07
1.359213076e-07
1.407824331e-07
1.454901517e-07
1.50058162e-07
1.544982422e-07
1.588205993e-07
1.630341341e-07
1.671466433e-07
1.711649726e-07
1.750951316e-07
1.789423801e-07
1.827112909e-07
1.86405803e-07
1.90029271e-07
1.935845319e-07
1.970739788e-07
2.004996998e-07
2.038636811e-07
2.071680234e-07
2.104160928e-07
2.136257593e-07
2.163875067e-07
2.057505884e-07
5.373198385e-07
3.589126935e-06
5.071845003e-06
2.071319524e-08
3.935905073e-08
5.250185391e-08
6.326528912e-08
7.26093519e-08
8.09816406e-08
8.863439113e-08
9.572646007e-08
1.023655942e-07
1.086288737e-07
1.145737062e-07
1.202442179e-07
1.256752005e-07
1.308946669e-07
1.359255721e-07
1.4078701e-07
1.454950677e-07
1.500634493e-07
1.545039398e-07
1.588267538e-07
1.630408013e-07
1.671538879e-07
1.711728679e-07
1.751037567e-07
1.789518139e-07
1.827216027e-07
1.864170376e-07
1.90041428e-07
1.93597541e-07
1.97087681e-07
2.005138266e-07
2.038778536e-07
2.071817978e-07
2.1042945e-07
2.136425286e-07
2.162752401e-07
2.030924587e-07
5.488157343e-07
3.602356631e-06
5.077783697e-06
2.071382842e-08
3.936025728e-08
5.250336407e-08
6.326708006e-08
7.261140509e-08
8.098394663e-08
8.863694677e-08
9.572926653e-08
1.023686561e-07
1.086321989e-07
1.145773052e-07
1.202481039e-07
1.2567939e-07
1.308991799e-07
1.359304328e-07
1.407922476e-07
1.455007174e-07
1.50069554e-07
1.545105516e-07
1.588339359e-07
1.630486296e-07
1.671624529e-07
1.711822745e-07
1.751141223e-07
1.789632636e-07
1.827342591e-07
1.86431004e-07
1.900567641e-07
1.93614229e-07
1.971055935e-07
2.00532695e-07
2.038972437e-07
2.072011363e-07
2.1044864e-07
2.136658207e-07
2.161310733e-07
1.997196742e-07
5.608493997e-07
3.614646383e-06
5.082739721e-06
2.07145086e-08
3.936155211e-08
5.250499859e-08
6.326902732e-08
7.261364505e-08
8.098646957e-08
8.863974999e-08
9.573235239e-08
1.023720311e-07
1.08635873e-07
1.145812918e-07
1.202524202e-07
1.256840567e-07
1.309042225e-07
1.35935882e-07
1.407981406e-07
1.455070994e-07
1.500764801e-07
1.545180891e-07
1.588421673e-07
1.630576555e-07
1.671723944e-07
1.711932753e-07
1.751263484e-07
1.789768995e-07
1.82749498e-07
1.864480302e-07
1.900757234e-07
1.936351861e-07
1.971284816e-07
2.005572625e-07
2.039230034e-07
2.072273518e-07
2.104750765e-07
2.136967502e-07
2.159598714e-07
1.955413258e-07
5.732784918e-07
3.626151093e-06
5.086725382e-06
2.071523361e-08
3.936293094e-08
5.250675179e-08
6.327112389e-08
7.261606349e-08
8.098919997e-08
8.864279022e-08
9.573570608e-08
1.023757066e-07
1.086398828e-07
1.145856525e-07
1.202571527e-07
1.256891869e-07
1.309097815e-07
1.359419079e-07
1.408046794e-07
1.455142074e-07
1.500842263e-07
1.545265586e-07
1.588514651e-07
1.63067911e-07
1.671837659e-07
1.712059542e-07
1.751405614e-07
1.789929074e-07
1.827675881e-07
1.864684976e-07
1.900988383e-07
1.936611413e-07
1.971573205e-07
2.005887942e-07
2.039567093e-07
2.072623168e-07
2.105108745e-07
2.137372896e-07
2.157626069e-07
1.910927935e-07
5.862321802e-07
3.636609787e-06
5.089710482e-06
2.071600101e-08
3.936438902e-08
5.250861729e-08
6.327336183e-08
7.261865105e-08
8.099212702e-08
8.864605531e-08
9.573931416e-08
1.023796679e-07
1.086442125e-07
1.145903706e-07
1.202622843e-07
1.256947629e-07
1.309158396e-07
1.359484938e-07
1.408118491e-07
1.455220294e-07
1.500927853e-07
1.545359597e-07
1.588618393e-07
1.630794215e-07
1.671966154e-07
1.712203921e-07
1.751568902e-07
1.790114857e-07
1.827888269e-07
1.86492844e-07
1.901267406e-07
1.936929882e-07
1.971933464e-07
2.006289551e-07
2.040005232e-07
2.07308715e-07
2.105592286e-07
2.137907281e-07
2.155402745e-07
1.865485464e-07
5.991318755e-07
3.646121159e-06
5.091775183e-06
2.071680813e-08
3.936592114e-08
5.251058805e-08
6.327573237e-08
7.262139723e-08
8.099523861e-08
8.864953152e-08
9.574316131e-08
1.023838983e-07
1.08648844e-07
1.145954266e-07
1.202677944e-07
1.257007633e-07
1.309223747e-07
1.359556178e-07
1.408196285e-07
1.455305463e-07
1.501021416e-07
1.545462831e-07
1.588732904e-07
1.630922027e-07
1.672109815e-07
1.712366625e-07
1.751754609e-07
1.790328394e-07
1.828135363e-07
1.865215626e-07
1.901601704e-07
1.937318137e-07
1.972381208e-07
2.006799287e-07
2.040574042e-07
2.073704024e-07
2.106249746e-07
2.138623942e-07
2.152997311e-07
1.820455367e-07
6.108103259e-07
3.654504982e-06
5.093112652e-06
2.071765206e-08
3.936752167e-08
5.25126564e-08
6.327822586e-08
7.262429049e-08
8.09985213e-08
8.865320355e-08
9.574723036e-08
1.023883787e-07
1.086537564e-07
1.14600798e-07
1.202736587e-07
1.257071624e-07
1.3092936e-07
1.359632523e-07
1.408279899e-07
1.455397312e-07
1.501122709e-07
1.545575092e-07
1.588858069e-07
1.631062566e-07
1.672268886e-07
1.712548252e-07
1.751963893e-07
1.790571715e-07
1.828420545e-07
1.865551979e-07
1.901999814e-07
1.937789255e-07
1.972936e-07
2.00744568e-07
2.041313919e-07
2.074529133e-07
2.107154515e-07
2.139611226e-07
2.150532862e-07
1.777366672e-07
6.20080499e-07
3.661784052e-06
5.093782307e-06
2.071852972e-08
3.936918456e-08
5.251481407e-08
6.32808319e-08
7.26273183e-08
8.100196042e-08
8.865705457e-08
9.57515023e-08
1.02393088e-07
1.086589264e-07
1.146064591e-07
1.202798494e-07
1.257139303e-07
1.309367634e-07
1.359713633e-07
1.40836898e-07
1.455495483e-07
1.501231379e-07
1.545696053e-07
1.58899362e-07
1.631215677e-07
1.672443411e-07
1.712749189e-07
1.752197709e-07
1.790846711e-07
1.828747227e-07
1.865943335e-07
1.902471384e-07
1.938358742e-07
1.973622124e-07
2.0082658e-07
2.042279872e-07
2.075641726e-07
2.108417749e-07