/*--------------------------------*- C++ -*----------------------------------*\
| =========                 |                                                 |
| \\      /  F ield         | OpenFOAM: The Open Source CFD Toolbox           |
|  \\    /   O peration     | Version:  v1912                                 |
|   \\  /    A nd           | Website:  www.openfoam.com                      |
|    \\/     M anipulation  |                                                 |
\*---------------------------------------------------------------------------*/
FoamFile
{
    version     2.0;
    format      ascii;
    class       volScalarField;
    location    "0.3";
    object      p;
}
// * * * * * * * * * * * * * * * * * * * * * * * * * * * * * * * * * * * * * //

dimensions      [1 -1 -2 0 0 0 0];


internalField   nonuniform List<scalar> 
4800
(
101759.9395
101759.9382
101759.9353
101759.9308
101759.9249
101759.9175
101759.9085
101759.8981
101759.8861
101759.8726
101759.8576
101759.8411
101759.8231
101759.8036
101759.7826
101759.7601
101759.7363
101759.7111
101759.6846
101759.6568
101759.6279
101759.598
101759.5672
101759.5357
101759.5038
101759.4717
101759.4399
101759.4086
101759.3784
101759.3499
101759.3238
101759.301
101759.2826
101759.2696
101759.2635
101759.2658
101759.278
101759.2977
101759.3535
101759.3059
101745.2269
101745.2256
101745.2227
101745.2182
101745.2123
101745.2049
101745.1959
101745.1854
101745.1735
101745.16
101745.145
101745.1284
101745.1104
101745.0909
101745.0699
101745.0474
101745.0236
101744.9983
101744.9717
101744.9439
101744.9149
101744.8849
101744.854
101744.8224
101744.7903
101744.758
101744.7259
101744.6943
101744.6637
101744.6348
101744.6083
101744.5849
101744.5658
101744.5521
101744.5451
101744.5465
101744.5579
101744.5789
101744.6281
101744.6102
101730.5155
101730.5142
101730.5113
101730.5069
101730.501
101730.4935
101730.4846
101730.4741
101730.4621
101730.4486
101730.4336
101730.4171
101730.399
101730.3795
101730.3585
101730.336
101730.312
101730.2867
101730.26
101730.232
101730.2029
101730.1727
101730.1416
101730.1097
101730.0773
101730.0446
101730.012
101729.9798
101729.9486
101729.9189
101729.8913
101729.8668
101729.8463
101729.8311
101729.8224
101729.822
101729.8317
101729.8533
101729.8984
101729.8364
101715.8055
101715.8042
101715.8013
101715.7969
101715.791
101715.7836
101715.7746
101715.7641
101715.7521
101715.7386
101715.7236
101715.707
101715.689
101715.6694
101715.6483
101715.6257
101715.6017
101715.5762
101715.5494
101715.5213
101715.4919
101715.4615
101715.43
101715.3977
101715.3648
101715.3316
101715.2982
101715.2652
101715.2329
101715.202
101715.173
101715.1468
101715.1243
101715.1068
101715.0955
101715.0923
101715.0992
101715.1192
101715.1617
101715.0678
101701.0968
101701.0955
101701.0927
101701.0882
101701.0823
101701.0749
101701.0659
101701.0554
101701.0435
101701.0299
101701.0149
101700.9983
101700.9802
101700.9606
101700.9394
101700.9168
101700.8926
101700.867
101700.84
101700.8116
101700.782
101700.7512
101700.7193
101700.6865
101700.653
101700.6189
101700.5847
101700.5505
101700.5169
101700.4844
101700.4535
101700.4251
101700.4
101700.3793
101700.3645
101700.3573
101700.36
101700.3764
101700.4147
101700.2894
101686.3894
101686.3882
101686.3853
101686.3809
101686.3749
101686.3675
101686.3586
101686.3481
101686.3361
101686.3226
101686.3075
101686.2909
101686.2727
101686.2531
101686.2318
101686.2091
101686.1848
101686.159
101686.1318
101686.1031
101686.0731
101686.0419
101686.0095
101685.976
101685.9417
101685.9068
101685.8714
101685.8359
101685.8007
101685.7662
101685.733
101685.7018
101685.6734
101685.6489
101685.6296
101685.6172
101685.614
101685.6244
101685.6551
101685.4953
101671.6833
101671.6821
101671.6792
101671.6748
101671.6689
101671.6615
101671.6525
101671.642
101671.6301
101671.6165
101671.6014
101671.5848
101671.5666
101671.5469
101671.5255
101671.5026
101671.4782
101671.4522
101671.4248
101671.3958
101671.3654
101671.3337
101671.3007
101671.2665
101671.2313
101671.1952
101671.1586
101671.1215
101671.0844
101671.0477
101671.0118
101670.9773
101670.9451
101670.916
101670.8912
101670.8724
101670.8616
101670.8632
101670.8823
101670.6848
101656.9786
101656.9773
101656.9744
101656.97
101656.9641
101656.9567
101656.9478
101656.9373
101656.9253
101656.9118
101656.8967
101656.88
101656.8618
101656.842
101656.8206
101656.7976
101656.773
101656.7468
101656.719
101656.6897
101656.6589
101656.6266
101656.5929
101656.5579
101656.5217
101656.4844
101656.4463
101656.4075
101656.3683
101656.329
101656.29
101656.2519
101656.2153
101656.181
101656.1499
101656.1235
101656.1035
101656.0941
101656.0975
101655.8585
101642.2751
101642.2739
101642.271
101642.2666
101642.2607
101642.2533
101642.2444
101642.2339
101642.222
101642.2084
101642.1933
101642.1766
101642.1584
101642.1385
101642.117
101642.0938
101642.069
101642.0426
101642.0146
101641.9849
101641.9536
101641.9207
101641.8863
101641.8504
101641.8131
101641.7745
101641.7348
101641.6941
101641.6525
101641.6105
101641.5682
101641.5261
101641.4846
101641.4445
101641.4064
101641.3713
101641.3407
101641.3179
101641.3016
101641.0231
101627.5729
101627.5717
101627.5689
101627.5645
101627.5586
101627.5512
101627.5423
101627.5319
101627.5199
101627.5064
101627.4913
101627.4746
101627.4563
101627.4363
101627.4147
101627.3914
101627.3665
101627.3398
101627.3115
101627.2814
101627.2496
101627.2161
101627.1809
101627.1441
101627.1056
101627.0657
101627.0242
101626.9814
101626.9374
101626.8924
101626.8465
101626.8002
101626.7535
101626.7071
101626.6614
101626.6171
101626.5747
101626.5367
101626.4998
101626.1858
101612.8721
101612.8709
101612.868
101612.8637
101612.8578
101612.8505
101612.8416
101612.8312
101612.8192
101612.8057
101612.7906
101612.7739
101612.7556
101612.7356
101612.7139
101612.6905
101612.6653
101612.6384
101612.6098
101612.5793
101612.547
101612.5128
101612.4769
101612.4391
101612.3994
101612.358
101612.3148
101612.2699
101612.2233
101612.1751
101612.1255
101612.0746
101612.0226
101611.9697
101611.916
101611.8619
101611.8074
101611.7537
101611.6969
101611.3513
101598.1725
101598.1713
101598.1685
101598.1642
101598.1583
101598.151
101598.1422
101598.1318
101598.1199
101598.1064
101598.0913
101598.0746
101598.0562
101598.0362
101598.0144
101597.9909
101597.9656
101597.9385
101597.9095
101597.8786
101597.8458
101597.8111
101597.7743
101597.7355
101597.6946
101597.6517
101597.6067
101597.5596
101597.5103
101597.459
101597.4056
101597.3501
101597.2925
101597.2328
101597.1711
101597.1071
101597.0405
101596.9716
101596.8955
101596.5245
101583.4743
101583.4731
101583.4703
101583.466
101583.4602
101583.4529
101583.4441
101583.4337
101583.4219
101583.4084
101583.3934
101583.3767
101583.3583
101583.3383
101583.3165
101583.2928
101583.2674
101583.2401
101583.2108
101583.1795
101583.1462
101583.1108
101583.0733
101583.0335
101582.9914
101582.947
101582.9001
101582.8508
101582.7989
101582.7444
101582.6871
101582.6269
101582.5637
101582.4974
101582.4275
101582.3537
101582.2753
101582.1919
101582.0985
101581.7084
101568.7773
101568.7761
101568.7733
101568.7691
101568.7633
101568.7561
101568.7473
101568.737
101568.7252
101568.7118
101568.6968
101568.6802
101568.6618
101568.6418
101568.6199
101568.5963
101568.5707
101568.5432
101568.5136
101568.482
101568.4482
101568.4122
101568.3739
101568.3331
101568.2899
101568.244
101568.1954
101568.1439
101568.0894
101568.0316
101567.9705
101567.9057
101567.837
101567.764
101567.6862
101567.6029
101567.5132
101567.4162
101567.3076
101566.9041
101554.0816
101554.0804
101554.0777
101554.0734
101554.0677
101554.0606
101554.0519
101554.0417
101554.0299
101554.0166
101554.0017
101553.9851
101553.9668
101553.9468
101553.9249
101553.9012
101553.8755
101553.8478
101553.8181
101553.7861
101553.7519
101553.7153
101553.6763
101553.6346
101553.5902
101553.5429
101553.4926
101553.439
101553.3819
101553.3211
101553.2562
101553.187
101553.1129
101553.0335
101552.948
101552.8557
101552.7553
101552.6458
101552.5236
101552.1115
101539.3872
101539.3861
101539.3833
101539.3791
101539.3735
101539.3664
101539.3578
101539.3476
101539.336
101539.3228
101539.3079
101539.2914
101539.2732
101539.2532
101539.2314
101539.2076
101539.1819
101539.1541
101539.1242
101539.092
101539.0574
101539.0203
101538.9806
101538.9381
101538.8926
101538.844
101538.792
101538.7364
101538.6769
101538.6131
101538.5447
101538.4712
101538.392
101538.3064
101538.2137
101538.1128
101538.0026
101537.8817
101537.7477
101537.3307
101524.6941
101524.6929
101524.6902
101524.6861
101524.6805
101524.6735
101524.665
101524.6549
101524.6434
101524.6303
101524.6156
101524.5992
101524.5811
101524.5612
101524.5394
101524.5157
101524.49
101524.4621
101524.432
101524.3996
101524.3647
101524.3272
101524.2869
101524.2436
101524.1972
101524.1473
101524.0938
101524.0364
101523.9746
101523.908
101523.8363
101523.7588
101523.6747
101523.5835
101523.484
101523.3752
101523.2558
101523.1247
101522.9806
101522.5622
101510.0022
101510.001
101509.9984
101509.9943
101509.9888
101509.9819
101509.9735
101509.9636
101509.9522
101509.9392
101509.9246
101509.9084
101509.8904
101509.8706
101509.8489
101509.8253
101509.7996
101509.7718
101509.7416
101509.709
101509.6739
101509.636
101509.5952
101509.5513
101509.504
101509.4531
101509.3982
101509.3391
101509.2752
101509.2062
101509.1314
101509.0502
101508.9618
101508.8652
101508.7594
101508.6433
101508.5156
101508.3753
101508.2229
101507.8059
101495.3115
101495.3104
101495.3078
101495.3038
101495.2984
101495.2915
101495.2833
101495.2735
101495.2623
101495.2495
101495.235
101495.219
101495.2012
101495.1816
101495.1601
101495.1366
101495.111
101495.0832
101495.053
101495.0204
101494.9851
101494.9469
101494.9058
101494.8613
101494.8133
101494.7614
101494.7054
101494.6448
101494.5791
101494.5079
101494.4304
101494.3459
101494.2535
101494.1522
101494.0407
101493.9179
101493.7824
101493.6335
101493.4736
101493.0599
101480.6221
101480.621
101480.6184
101480.6145
101480.6092
101480.6025
101480.5943
101480.5847
101480.5737
101480.5611
101480.5469
101480.531
101480.5134
101480.494
101480.4727
101480.4494
101480.424
101480.3963
101480.3663
101480.3336
101480.2983
101480.26
101480.2185
101480.1737
101480.1251
101480.0725
101480.0155
101479.9537
101479.8865
101479.8133
101479.7335
101479.6462
101479.5503
101479.4449
101479.3284
101479.1995
101479.0566
101478.8992
101478.7311
101478.3202
101465.9338
101465.9328
101465.9303
101465.9264
101465.9212
101465.9146
101465.9067
101465.8973
101465.8864
101465.874
101465.8601
101465.8445
101465.8272
101465.808
101465.787
101465.7639
101465.7387
101465.7113
101465.6814
101465.6489
101465.6136
101465.5752
101465.5337
101465.4886
101465.4396
101465.3865
101465.3287
101465.2659
101465.1975
101465.1228
101465.041
101464.9514
101464.8527
101464.7438
101464.6231
101464.4887
101464.3391
101464.1727
101463.9938
101463.5827
101451.2468
101451.2457
101451.2433
101451.2395
101451.2344
101451.228
101451.2202
101451.2111
101451.2004
101451.1883
101451.1746
101451.1593
101451.1423
101451.1235
101451.1028
101451.0801
101451.0552
101451.028
101450.9984
101450.9661
101450.9309
101450.8927
101450.8512
101450.806
101450.7569
101450.7034
101450.6451
101450.5816
101450.5123
101450.4364
101450.3533
101450.2618
101450.161
101450.0494
101449.9253
101449.7866
101449.6308
101449.4552
101449.2622
101448.8463
101436.5608
101436.5598
101436.5574
101436.5538
101436.5488
101436.5426
101436.535
101436.5261
101436.5157
101436.5039
101436.4906
101436.4756
101436.459
101436.4405
101436.4202
101436.3979
101436.3734
101436.3466
101436.3173
101436.2853
101436.2505
101436.2125
101436.1711
101436.126
101436.0769
101436.0233
101435.9648
101435.9009
101435.8311
101435.7545
101435.6703
101435.5777
101435.4754
101435.362
101435.2356
101435.0937
101434.9333
101434.7495
101434.5412
101434.1195
101421.876
101421.875
101421.8727
101421.8692
101421.8644
101421.8583
101421.851
101421.8423
101421.8323
101421.8208
101421.8078
101421.7932
101421.777
101421.759
101421.7391
101421.7173
101421.6932
101421.6669
101421.6381
101421.6066
101421.5722
101421.5346
101421.4936
101421.4488
101421.3998
101421.3464
101421.2879
101421.224
101421.1539
101421.077
101420.9924
101420.8992
101420.7962
101420.6819
101420.5543
101420.411
101420.2483
101420.0601
101419.8435
101419.4456
101407.1923
101407.1913
101407.1891
101407.1857
101407.1811
101407.1752
101407.1681
101407.1598
101407.15
101407.1389
101407.1263
101407.1122
101407.0965
101407.079
101407.0596
101407.0383
101407.0148
101406.9891
101406.9608
101406.9299
101406.896
101406.859
101406.8185
101406.7742
101406.7257
101406.6726
101406.6144
101406.5507
101406.4808
101406.404
101406.3196
101406.2264
101406.1234
101406.0092
101405.8818
101405.7388
101405.5766
101405.3893
101405.1764
101404.8256
101392.5096
101392.5087
101392.5065
101392.5033
101392.4988
101392.4932
101392.4864
101392.4783
101392.469
101392.4583
101392.4462
101392.4325
101392.4173
101392.4004
101392.3816
101392.3609
101392.3381
101392.313
101392.2855
101392.2552
101392.2221
101392.1857
101392.1459
101392.1023
101392.0544
101392.0019
101391.9444
101391.8813
101391.8119
101391.7357
101391.6518
101391.5593
101391.4571
101391.3438
101391.2178
101391.0769
101390.9181
101390.7365
101390.535
101390.2323
101377.8279
101377.827
101377.825
101377.8219
101377.8176
101377.8123
101377.8057
101377.798
101377.7891
101377.7788
101377.7672
101377.7541
101377.7395
101377.7232
101377.7051
101377.6851
101377.6631
101377.6388
101377.612
101377.5826
101377.5503
101377.5148
101377.4758
101377.4331
101377.3861
101377.3345
101377.2778
101377.2156
101377.1472
101377.0719
101376.9891
101376.8978
101376.7971
101376.6857
101376.5622
101376.4248
101376.2714
101376.0985
101375.9111
101375.6506
101363.1472
101363.1463
101363.1444
101363.1414
101363.1374
101363.1323
101363.1261
101363.1188
101363.1103
101363.1005
101363.0894
101363.0769
101363.0629
101363.0473
101363.03
101363.0108
101362.9896
101362.9662
101362.9404
101362.912
101362.8806
101362.8462
101362.8083
101362.7666
101362.7207
101362.6702
101362.6147
101362.5537
101362.4865
101362.4126
101362.3313
101362.2418
101362.1432
101362.0344
101361.9143
101361.7815
101361.6347
101361.4717
101361.2988
101361.0734
101348.4674
101348.4666
101348.4647
101348.4619
101348.4581
101348.4533
101348.4475
101348.4406
101348.4325
101348.4233
101348.4128
101348.4009
101348.3877
101348.3728
101348.3563
101348.338
101348.3178
101348.2953
101348.2706
101348.2432
101348.2131
101348.1798
101348.1432
101348.1027
101348.0582
101348.0091
101347.955
101347.8955
101347.8299
101347.7578
101347.6784
101347.5911
101347.4951
101347.3896
101347.2736
101347.1462
101347.0065
101346.8537
101346.6951
101346.505
101333.7884
101333.7876
101333.7859
101333.7833
101333.7798
101333.7753
101333.7698
101333.7633
101333.7558
101333.7471
101333.7372
101333.7261
101333.7136
101333.6996
101333.684
101333.6667
101333.6474
101333.6261
101333.6025
101333.5764
101333.5476
101333.5157
101333.4804
101333.4415
101333.3985
101333.351
101333.2987
101333.2409
101333.1773
101333.1072
101333.0302
101332.9455
101332.8526
101332.7508
101332.6394
101332.5178
101332.3857
101332.2426
101332.0954
101331.927
101319.1102
101319.1095
101319.1079
101319.1055
101319.1022
101319.0981
101319.093
101319.087
101319.08
101319.0719
101319.0627
101319.0523
101319.0406
101319.0276
101319.013
101318.9967
101318.9786
101318.9585
101318.9362
101318.9115
101318.8841
101318.8537
101318.8201
101318.7828
101318.7416
101318.696
101318.6456
101318.5899
101318.5285
101318.4608
101318.3865
101318.3048
101318.2154
101318.1177
101318.0113
101317.8958
101317.7711
101317.6374
101317.5005
101317.3558
101304.4328
101304.4322
101304.4307
101304.4285
101304.4255
101304.4217
101304.417
101304.4115
101304.405
101304.3976
101304.3892
101304.3796
101304.3688
101304.3567
101304.3431
101304.328
101304.3112
101304.2924
101304.2715
101304.2483
101304.2225
101304.1939
101304.162
101304.1266
101304.0874
101304.0439
101303.9957
101303.9423
101303.8834
101303.8185
101303.7471
101303.6687
101303.5831
101303.4898
101303.3885
101303.2792
101303.1619
101303.0371
101302.9095
101302.787
101289.7561
101289.7555
101289.7542
101289.7522
101289.7494
101289.746
101289.7418
101289.7368
101289.7309
101289.7242
101289.7165
101289.7078
101289.6979
101289.6868
101289.6744
101289.6606
101289.645
101289.6277
101289.6084
101289.5868
101289.5628
101289.536
101289.5061
101289.4729
101289.4358
101289.3946
101289.3488
101289.2981
101289.2419
101289.18
101289.1118
101289.037
101288.9553
101288.8666
101288.7706
101288.6675
101288.5575
101288.4409
101288.322
101288.2196
101275.08
101275.0794
101275.0782
101275.0765
101275.074
101275.071
101275.0672
101275.0628
101275.0575
101275.0515
101275.0446
101275.0368
101275.028
101275.018
101275.0068
101274.9942
101274.9802
101274.9644
101274.9467
101274.927
101274.9049
101274.8801
101274.8524
101274.8214
101274.7868
101274.7481
101274.705
101274.6571
101274.6039
101274.5451
101274.4804
101274.4094
101274.3319
101274.2478
101274.1571
101274.0601
101273.9571
101273.8485
101273.7377
101273.6536
101260.4044
101260.4039
101260.4029
101260.4013
101260.3992
101260.3965
101260.3933
101260.3894
101260.3848
101260.3796
101260.3735
101260.3666
101260.3589
101260.3501
101260.3402
101260.329
101260.3164
101260.3023
101260.2865
101260.2686
101260.2486
101260.226
101260.2006
101260.1721
101260.1401
101260.1042
101260.064
101260.0192
101259.9692
101259.9138
101259.8527
101259.7856
101259.7123
101259.633
101259.5476
101259.4565
101259.3603
101259.2594
101259.1566
101259.0902
101245.7293
101245.7289
101245.728
101245.7267
101245.7249
101245.7226
101245.7199
101245.7165
101245.7127
101245.7082
101245.7031
101245.6972
101245.6905
101245.6829
101245.6744
101245.6647
101245.6538
101245.6414
101245.6274
101245.6117
101245.5938
101245.5736
101245.5508
101245.5249
101245.4957
101245.4628
101245.4258
101245.3842
101245.3377
101245.2859
101245.2285
101245.1654
101245.0965
101245.0218
101244.9417
101244.8564
101244.7667
101244.6731
101244.5782
101244.5287
101231.0546
101231.0542
101231.0535
101231.0524
101231.051
101231.0491
101231.0469
101231.0442
101231.041
101231.0374
101231.0331
101231.0283
101231.0228
101231.0165
101231.0094
101231.0012
101230.992
101230.9815
101230.9696
101230.956
101230.9405
101230.9228
101230.9027
101230.8797
101230.8536
101230.8238
101230.7901
101230.752
101230.7092
101230.6611
101230.6077
101230.5488
101230.4842
101230.4141
101230.339
101230.2593
101230.1757
101230.089
101230.0012
101229.9689
101216.3802
101216.3799
101216.3793
101216.3785
101216.3774
101216.376
101216.3743
101216.3722
101216.3698
101216.367
101216.3637
101216.3599
101216.3556
101216.3507
101216.345
101216.3385
101216.3311
101216.3225
101216.3127
101216.3014
101216.2884
101216.2734
101216.2562
101216.2363
101216.2134
101216.1871
101216.157
101216.1226
101216.0835
101216.0395
101215.9901
101215.9353
101215.8751
101215.8096
101215.7393
101215.6648
101215.587
101215.5067
101215.4255
101215.4091
101201.706
101201.7058
101201.7054
101201.7049
101201.7041
101201.7032
101201.702
101201.7006
101201.6989
101201.6969
101201.6946
101201.6919
101201.6889
101201.6853
101201.6812
101201.6764
101201.6708
101201.6643
101201.6567
101201.6479
101201.6375
101201.6254
101201.6112
101201.5946
101201.5751
101201.5525
101201.5262
101201.4957
101201.4607
101201.4208
101201.3756
101201.325
101201.2691
101201.208
101201.1422
101201.0727
101201.0002
101200.9258
101200.8515
101200.8467
101187.032
101187.0319
101187.0317
101187.0314
101187.031
101187.0305
101187.0298
101187.0291
101187.0282
101187.0271
101187.0258
101187.0242
101187.0224
101187.0203
101187.0177
101187.0147
101187.011
101187.0067
101187.0014
101186.9951
101186.9876
101186.9785
101186.9675
101186.9544
101186.9386
101186.9198
101186.8976
101186.8713
101186.8406
101186.8049
101186.7641
101186.7178
101186.666
101186.6091
101186.5477
101186.4826
101186.415
101186.346
101186.2784
101186.2813
101172.3581
101172.3581
101172.358
101172.358
101172.3579
101172.3579
101172.3578
101172.3577
101172.3576
101172.3574
101172.3571
101172.3567
101172.3562
101172.3555
101172.3546
101172.3533
101172.3517
101172.3495
101172.3467
101172.3431
101172.3384
101172.3325
101172.3249
101172.3155
101172.3036
101172.289
101172.271
101172.2492
101172.223
101172.1919
101172.1555
101172.1135
101172.0659
101172.013
101171.9554
101171.8943
101171.831
101171.7668
101171.7054
101171.7134
101157.6842
101157.6842
101157.6843
101157.6846
101157.6849
101157.6853
101157.6858
101157.6863
101157.687
101157.6877
101157.6884
101157.6892
101157.69
101157.6908
101157.6915
101157.6921
101157.6925
101157.6927
101157.6924
101157.6915
101157.6899
101157.6873
101157.6833
101157.6777
101157.6701
101157.6598
101157.6464
101157.6294
101157.6079
101157.5816
101157.5497
101157.5121
101157.4686
101157.4194
101157.3654
101157.3077
101157.2478
101157.1877
101157.1322
101157.1428
101143.0102
101143.0103
101143.0106
101143.0111
101143.0117
101143.0126
101143.0136
101143.0149
101143.0163
101143.0179
101143.0197
101143.0217
101143.0238
101143.0261
101143.0285
101143.031
101143.0335
101143.0359
101143.0382
101143.0402
101143.0417
101143.0426
101143.0424
101143.0409
101143.0376
101143.0321
101143.0236
101143.0116
101142.9953
101142.9739
101142.9469
101142.9138
101142.8743
101142.8286
101142.7775
101142.7224
101142.6653
101142.6085
101142.5581
101142.5689
101128.336
101128.3362
101128.3366
101128.3374
101128.3384
101128.3397
101128.3413
101128.3432
101128.3454
101128.3479
101128.3507
101128.3539
101128.3574
101128.3612
101128.3652
101128.3696
101128.3743
101128.3791
101128.384
101128.389
101128.3938
101128.3982
101128.402
101128.4048
101128.4062
101128.4056
101128.4024
101128.3958
101128.3849
101128.369
101128.3471
101128.3186
101128.283
101128.2405
101128.1918
101128.1385
101128.083
101128.0285
101127.982
101127.9909
101113.6616
101113.6618
101113.6624
101113.6634
101113.6648
101113.6666
101113.6687
101113.6713
101113.6742
101113.6776
101113.6815
101113.6858
101113.6906
101113.6959
101113.7017
101113.708
101113.7148
101113.722
101113.7296
101113.7376
101113.7457
101113.7539
101113.7618
101113.7691
101113.7754
101113.7801
101113.7825
101113.7818
101113.7769
101113.7668
101113.7504
101113.7267
101113.6952
101113.6555
101113.6084
101113.5557
101113.5004
101113.4469
101113.4025
101113.4071
101098.9868
101098.9871
101098.9879
101098.9891
101098.9909
101098.9931
101098.9958
101098.9989
101099.0027
101099.0069
101099.0118
101099.0173
101099.0234
101099.0302
101099.0377
101099.0459
101099.0548
101099.0644
101099.0748
101099.0858
101099.0974
101099.1093
101099.1215
101099.1335
101099.145
101099.1554
101099.1638
101099.1694
101099.171
101099.1673
101099.1569
101099.1385
101099.111
101099.0739
101099.0277
101098.9743
101098.9172
101098.8624
101098.8169
101098.8152
101084.3116
101084.3119
101084.3129
101084.3144
101084.3165
101084.3191
101084.3223
101084.3261
101084.3306
101084.3357
101084.3415
101084.3481
101084.3556
101084.3638
101084.373
101084.383
101084.3941
101084.4062
101084.4193
101084.4333
101084.4484
101084.4643
101084.4808
101084.4978
101084.5147
101084.5311
101084.546
101084.5585
101084.5672
101084.5706
101084.567
101084.5544
101084.5312
101084.4965
101084.4503
101084.3943
101084.3328
101084.2734
101084.222
101084.2129
101069.6359
101069.6363
101069.6374
101069.6392
101069.6415
101069.6446
101069.6483
101069.6527
101069.6579
101069.6638
101069.6706
101069.6783
101069.687
101069.6967
101069.7074
101069.7194
101069.7326
101069.747
101069.7628
101069.78
101069.7985
101069.8184
101069.8394
101069.8615
101069.8841
101069.9068
101069.9287
101069.9488
101069.9654
101069.9768
101069.9807
101069.9748
101069.9566
101069.9242
101069.8771
101069.8166
101069.7471
101069.6782
101069.6132
101069.5982
101054.9596
101054.9601
101054.9613
101054.9633
101054.966
101054.9694
101054.9736
101054.9786
101054.9844
101054.9912
101054.9989
101055.0077
101055.0175
101055.0286
101055.041
101055.0547
101055.0699
101055.0867
101055.1052
101055.1254
101055.1474
101055.1712
101055.1969
101055.2241
101055.2527
101055.2822
101055.3116
101055.3398
101055.3653
101055.3857
101055.3984
101055.4003
101055.388
101055.3583
101055.3096
101055.2421
101055.1601
101055.0746
101054.9852
101054.9717
101040.2827
101040.2832
101040.2846
101040.2868
101040.2898
101040.2936
101040.2982
101040.3037
101040.3102
101040.3177
101040.3263
101040.3361
101040.3471
101040.3595
101040.3733
101040.3888
101040.406
101040.425
101040.4461
101040.4693
101040.4947
101040.5225
101040.5528
101040.5853
101040.6201
101040.6566
101040.694
101040.7313
101040.7665
101040.7973
101040.8204
101040.8317
101040.8267
101040.8006
101040.7498
101040.6729
101040.5727
101040.4614
101040.3317
101040.3378
101025.605
101025.6056
101025.6072
101025.6095
101025.6128
101025.6169
101025.622
101025.628
101025.6351
101025.6433
101025.6527
101025.6634
101025.6755
101025.6891
101025.7044
101025.7215
101025.7406
101025.7618
101025.7853
101025.8114
101025.8402
101025.8719
101025.9066
101025.9446
101025.9856
101026.0294
101026.0754
101026.1224
101026.1686
101026.2113
101026.2466
101026.2696
101026.2741
101026.2533
101026.2006
101026.1119
101025.9868
101025.8375
101025.647
101025.7101
101010.9266
101010.9273
101010.9289
101010.9315
101010.935
101010.9394
101010.9449
101010.9514
101010.959
101010.9678
101010.978
101010.9895
101011.0026
101011.0174
101011.034
101011.0527
101011.0735
101011.0967
101011.1226
101011.1514
101011.1833
101011.2188
101011.258
101011.3012
101011.3486
101011.3999
101011.4549
101011.5125
101011.5709
101011.6272
101011.6772
101011.7147
101011.7319
101011.7191
101011.6659
101011.5635
101011.4051
101011.2016
101010.9313
101011.1215
100996.2474
100996.2481
100996.2498
100996.2525
100996.2562
100996.261
100996.2668
100996.2737
100996.2818
100996.2913
100996.3021
100996.3144
100996.3284
100996.3442
100996.3621
100996.3821
100996.4045
100996.4296
100996.4577
100996.489
100996.5239
100996.5629
100996.6063
100996.6547
100996.7082
100996.7672
100996.8315
100996.9003
100996.9721
100997.0441
100997.1115
100997.1674
100997.2017
100997.2014
100997.1507
100997.0337
100996.8327
100996.5509
100996.1973
100996.636
100981.5673
100981.568
100981.5698
100981.5727
100981.5766
100981.5816
100981.5877
100981.595
100981.6035
100981.6135
100981.6249
100981.6379
100981.6527
100981.6695
100981.6884
100981.7097
100981.7336
100981.7603
100981.7903
100981.8239
100981.8615
100981.9037
100981.9511
100982.0042
100982.0638
100982.1303
100982.204
100982.2846
100982.371
100982.4605
100982.5485
100982.6273
100982.6849
100982.7038
100982.6613
100982.5302
100982.2768
100981.8951
100981.4933
100982.3592
100966.8862
100966.887
100966.8889
100966.8918
100966.8959
100966.9011
100966.9075
100966.9151
100966.9241
100966.9344
100966.9463
100966.96
100966.9754
100966.993
100967.0129
100967.0352
100967.0604
100967.0887
100967.1204
100967.1559
100967.1959
100967.2409
100967.2917
100967.3492
100967.4144
100967.4881
100967.5711
100967.6637
100967.7654
100967.8743
100967.9863
100968.0935
100968.1822
100968.2301
100968.2047
100968.0638
100967.7554
100967.2689
100966.9426
100968.4496
100952.2043
100952.205
100952.2069
100952.21
100952.2142
100952.2196
100952.2262
100952.2341
100952.2434
100952.2541
100952.2664
100952.2805
100952.2965
100952.3148
100952.3354
100952.3587
100952.3849
100952.4144
100952.4476
100952.4848
100952.5267
100952.5741
100952.6278
100952.689
100952.7591
100952.8393
100952.931
100953.0354
100953.1529
100953.2826
100953.4215
100953.5629
100953.6927
100953.7834
100953.7894
100953.6546
100953.3167
100952.7784
100952.7619
100955.1015
100937.5214
100937.5221
100937.524
100937.5271
100937.5314
100937.5369
100937.5437
100937.5519
100937.5614
100937.5724
100937.585
100937.5994
100937.6159
100937.6347
100937.6559
100937.68
100937.7071
100937.7376
100937.7719
100937.8104
100937.8538
100937.903
100937.9589
100938.0231
100938.0972
100938.1831
100938.2827
100938.3982
100938.5311
100938.6822
100938.8502
100939.0312
100939.2136
100939.3645
100939.4227
100939.3217
100939.0217
100938.6265
100939.2894
100942.4937
100922.8363
100922.8368
100922.8385
100922.8417
100922.8461
100922.8517
100922.8587
100922.8669
100922.8766
100922.8878
100922.9006
100922.9152
100922.9319
100922.951
100922.9727
100922.9972
100923.0249
100923.0561
100923.0912
100923.1305
100923.1749
100923.225
100923.2822
100923.3481
100923.4249
100923.5149
100923.6207
100923.7457
100923.8926
100924.0635
100924.2599
100924.4824
100924.7254
100924.9518
100925.0768
100925.032
100924.9354
100925.0722
100926.9101
100930.7069
100908.2535
100908.2546
100908.2573
100908.2616
100908.2668
100908.2735
100908.2814
100908.2907
100908.3016
100908.314
100908.3282
100908.3443
100908.3626
100908.3832
100908.4064
100908.4325
100908.4617
100908.4945
100908.5311
100908.572
100908.618
100908.6696
100908.7284
100908.7961
100908.8756
100908.9692
100909.0807
100909.2158
100909.3811
100909.5834
100909.8288
100910.1242
100910.4714
100910.8396
100911.1377
100911.298
100911.6456
100912.6915
100915.7507
100919.6909
100899.9362
100899.9368
100899.9387
100899.9411
100899.9437
100899.9476
100899.952
100899.9572
100899.9633
100899.9702
100899.978
100899.9868
100899.9968
100900.0079
100900.0204
100900.0343
100900.0497
100900.067
100900.0862
100900.1078
100900.132
100900.1591
100900.1901
100900.2262
100900.2704
100900.3215
100900.3836
100900.462
100900.5633
100900.6944
100900.8594
100901.0593
100901.2914
100901.5456
100901.7956
100902.0131
100902.3589
100903.3721
100906.0793
100909.3771
100898.8347
100898.8347
100898.8348
100898.8349
100898.8349
100898.835
100898.8351
100898.8352
100898.8353
100898.8355
100898.8356
100898.8358
100898.836
100898.8362
100898.8365
100898.8368
100898.8372
100898.8376
100898.8381
100898.8386
100898.8393
100898.8402
100898.8413
100898.8428
100898.8447
100898.8477
100898.8524
100898.8595
100898.8707
100898.8878
100898.9116
100898.9401
100898.9711
100899.0042
100899.0369
100899.0577
100899.073
100899.3184
100900.1891
100901.5613
100898.7728
100898.7728
100898.7728
100898.7728
100898.7728
100898.7729
100898.7729
100898.773
100898.773
100898.7731
100898.7731