/*--------------------------------*- C++ -*----------------------------------*\
| =========                 |                                                 |
| \\      /  F ield         | OpenFOAM: The Open Source CFD Toolbox           |
|  \\    /   O peration     | Version:  v1912                                 |
|   \\  /    A nd           | Website:  www.openfoam.com                      |
|    \\/     M anipulation  |                                                 |
\*---------------------------------------------------------------------------*/
FoamFile
{
    version     2.0;
    format      ascii;
    class       volScalarField;
    location    "0.3";
    object      p_rgh;
}
// * * * * * * * * * * * * * * * * * * * * * * * * * * * * * * * * * * * * * //

dimensions      [1 -1 -2 0 0 0 0];


internalField   nonuniform List<scalar> 
4800
(
101763.6183
101763.617
101763.6141
101763.6097
101763.6037
101763.5963
101763.5874
101763.5769
101763.5649
101763.5514
101763.5364
101763.5199
101763.5019
101763.4824
101763.4614
101763.439
101763.4151
101763.3899
101763.3634
101763.3356
101763.3067
101763.2768
101763.246
101763.2146
101763.1827
101763.1506
101763.1187
101763.0874
101763.0572
101763.0287
101763.0026
101762.9799
101762.9614
101762.9485
101762.9424
101762.9446
101762.9569
101762.9765
101763.0324
101762.9421
101756.2634
101756.2621
101756.2592
101756.2547
101756.2488
101756.2414
101756.2324
101756.2219
101756.21
101756.1965
101756.1815
101756.1649
101756.1469
101756.1274
101756.1064
101756.0839
101756.0601
101756.0348
101756.0082
101755.9804
101755.9514
101755.9214
101755.8905
101755.8589
101755.8268
101755.7945
101755.7624
101755.7308
101755.7003
101755.6713
101755.6448
101755.6214
101755.6023
101755.5886
101755.5816
101755.583
101755.5944
101755.6154
101755.6628
101755.4683
101748.9097
101748.9084
101748.9055
101748.9011
101748.8952
101748.8877
101748.8788
101748.8683
101748.8563
101748.8428
101748.8278
101748.8113
101748.7932
101748.7737
101748.7526
101748.7301
101748.7062
101748.6809
101748.6542
101748.6262
101748.5971
101748.5669
101748.5358
101748.5039
101748.4715
101748.4388
101748.4062
101748.374
101748.3428
101748.313
101748.2855
101748.261
101748.2405
101748.2253
101748.2166
101748.2162
101748.2259
101748.2474
101748.2841
101747.8371
101741.5574
101741.5561
101741.5532
101741.5488
101741.5429
101741.5354
101741.5265
101741.516
101741.504
101741.4905
101741.4755
101741.4589
101741.4408
101741.4212
101741.4002
101741.3776
101741.3536
101741.3281
101741.3013
101741.2732
101741.2438
101741.2133
101741.1819
101741.1496
101741.1167
101741.0834
101741.0501
101741.0171
101740.9848
101740.9539
101740.9249
101740.8987
101740.8762
101740.8586
101740.8474
101740.8442
101740.8511
101740.871
101740.8918
101740.1453
101734.2064
101734.2051
101734.2022
101734.1978
101734.1918
101734.1844
101734.1755
101734.165
101734.153
101734.1395
101734.1244
101734.1079
101734.0897
101734.0701
101734.0489
101734.0263
101734.0021
101733.9765
101733.9495
101733.9212
101733.8915
101733.8607
101733.8288
101733.796
101733.7625
101733.7285
101733.6942
101733.6601
101733.6265
101733.5939
101733.5631
101733.5346
101733.5095
101733.4888
101733.474
101733.4668
101733.4695
101733.4859
101733.4831
101732.3887
101726.8566
101726.8554
101726.8525
101726.8481
101726.8422
101726.8347
101726.8258
101726.8153
101726.8033
101726.7898
101726.7747
101726.7581
101726.74
101726.7203
101726.699
101726.6763
101726.652
101726.6262
101726.599
101726.5703
101726.5404
101726.5091
101726.4767
101726.4433
101726.409
101726.374
101726.3386
101726.3031
101726.2679
101726.2334
101726.2002
101726.169
101726.1406
101726.1161
101726.0968
101726.0844
101726.0813
101726.0915
101726.0549
101724.5615
101719.5082
101719.507
101719.5041
101719.4997
101719.4938
101719.4863
101719.4774
101719.4669
101719.4549
101719.4414
101719.4263
101719.4097
101719.3915
101719.3717
101719.3504
101719.3275
101719.3031
101719.2771
101719.2497
101719.2207
101719.1903
101719.1586
101719.1256
101719.0914
101719.0562
101719.0201
101718.9834
101718.9464
101718.9093
101718.8726
101718.8367
101718.8022
101718.77
101718.7409
101718.7161
101718.6973
101718.6865
101718.688
101718.6082
101716.6602
101712.1611
101712.1599
101712.157
101712.1526
101712.1467
101712.1393
101712.1304
101712.1199
101712.1079
101712.0944
101712.0793
101712.0626
101712.0444
101712.0246
101712.0031
101711.9801
101711.9555
101711.9293
101711.9016
101711.8723
101711.8414
101711.8092
101711.7755
101711.7405
101711.7043
101711.667
101711.6289
101711.5901
101711.5508
101711.5116
101711.4726
101711.4345
101711.3979
101711.3635
101711.3325
101711.306
101711.286
101711.2765
101711.1495
101708.6748
101704.8153
101704.8141
101704.8112
101704.8069
101704.801
101704.7936
101704.7846
101704.7742
101704.7622
101704.7487
101704.7336
101704.7169
101704.6986
101704.6787
101704.6572
101704.6341
101704.6093
101704.5829
101704.5548
101704.5251
101704.4938
101704.4609
101704.4265
101704.3906
101704.3534
101704.3148
101704.275
101704.2343
101704.1928
101704.1507
101704.1084
101704.0663
101704.0249
101703.9847
101703.9466
101703.9116
101703.8809
101703.858
101703.6653
101700.6033
101697.4709
101697.4696
101697.4668
101697.4624
101697.4565
101697.4491
101697.4402
101697.4298
101697.4178
101697.4043
101697.3892
101697.3725
101697.3542
101697.3342
101697.3126
101697.2894
101697.2644
101697.2378
101697.2094
101697.1793
101697.1475
101697.114
101697.0788
101697.042
101697.0036
101696.9636
101696.9222
101696.8794
101696.8354
101696.7903
101696.7445
101696.6981
101696.6515
101696.6051
101696.5594
101696.515
101696.4726
101696.4345
101696.1623
101692.4531
101690.1277
101690.1265
101690.1236
101690.1193
101690.1134
101690.1061
101690.0972
101690.0868
101690.0748
101690.0613
101690.0462
101690.0295
101690.0112
101689.9912
101689.9695
101689.9461
101689.9209
101689.8941
101689.8654
101689.8349
101689.8026
101689.7685
101689.7325
101689.6947
101689.655
101689.6136
101689.5704
101689.5255
101689.4789
101689.4307
101689.3812
101689.3303
101689.2782
101689.2253
101689.1716
101689.1175
101689.0631
101689.0092
101688.651
101684.2351
101682.7858
101682.7846
101682.7818
101682.7774
101682.7716
101682.7643
101682.7554
101682.7451
101682.7332
101682.7197
101682.7046
101682.6879
101682.6695
101682.6495
101682.6277
101682.6042
101682.5789
101682.5518
101682.5228
101682.4919
101682.4591
101682.4243
101682.3876
101682.3488
101682.3079
101682.265
101682.22
101682.1729
101682.1236
101682.0723
101682.0189
101681.9634
101681.9058
101681.8461
101681.7843
101681.7203
101681.6538
101681.5847
101681.1347
101675.9655
101675.4452
101675.444
101675.4412
101675.4369
101675.4311
101675.4238
101675.415
101675.4047
101675.3928
101675.3794
101675.3643
101675.3477
101675.3293
101675.3092
101675.2874
101675.2638
101675.2384
101675.211
101675.1818
101675.1505
101675.1172
101675.0818
101675.0442
101675.0044
101674.9624
101674.9179
101674.8711
101674.8218
101674.7699
101674.7154
101674.6581
101674.5979
101674.5347
101674.4683
101674.3984
101674.3247
101674.2462
101674.1627
101673.6162
101667.6617
101668.106
101668.1048
101668.102
101668.0977
101668.0919
101668.0847
101668.076
101668.0657
101668.0539
101668.0405
101668.0255
101668.0088
101667.9905
101667.9704
101667.9486
101667.9249
101667.8993
101667.8718
101667.8423
101667.8107
101667.7769
101667.7409
101667.7025
101667.6618
101667.6185
101667.5726
101667.524
101667.4725
101667.418
101667.3603
101667.2991
101667.2344
101667.1657
101667.0926
101667.0148
101666.9315
101666.8418
101666.7447
101666.0969
101659.3375
101660.768
101660.7668
101660.764
101660.7598
101660.7541
101660.7469
101660.7382
101660.728
101660.7163
101660.7029
101660.688
101660.6714
101660.6531
101660.6331
101660.6112
101660.5875
101660.5618
101660.5342
101660.5044
101660.4725
101660.4383
101660.4017
101660.3626
101660.321
101660.2766
101660.2293
101660.1789
101660.1253
101660.0682
101660.0074
101659.9426
101659.8733
101659.7992
101659.7198
101659.6343
101659.542
101659.4416
101659.332
101658.5779
101651.0004
101653.4312
101653.4301
101653.4273
101653.4231
101653.4175
101653.4104
101653.4018
101653.3917
101653.38
101653.3668
101653.3519
101653.3354
101653.3172
101653.2972
101653.2754
101653.2517
101653.2259
101653.1981
101653.1682
101653.136
101653.1014
101653.0643
101653.0246
101652.9821
101652.9366
101652.888
101652.836
101652.7804
101652.7209
101652.6571
101652.5887
101652.5152
101652.436
101652.3504
101652.2577
101652.1568
101652.0466
101651.9256
101651.0612
101642.6517
101646.0958
101646.0946
101646.0919
101646.0878
101646.0822
101646.0752
101646.0666
101646.0566
101646.0451
101646.032
101646.0173
101646.0009
101645.9827
101645.9628
101645.9411
101645.9174
101645.8916
101645.8638
101645.8337
101645.8013
101645.7664
101645.7289
101645.6885
101645.6453
101645.5988
101645.549
101645.4955
101645.438
101645.3763
101645.3097
101645.238
101645.1605
101645.0764
101644.9852
101644.8857
101644.7769
101644.6575
101644.5263
101643.5489
101634.2882
101638.7616
101638.7604
101638.7578
101638.7537
101638.7482
101638.7412
101638.7328
101638.7229
101638.7115
101638.6986
101638.684
101638.6677
101638.6498
101638.63
101638.6083
101638.5847
101638.559
101638.5311
101638.501
101638.4684
101638.4333
101638.3954
101638.3546
101638.3107
101638.2634
101638.2125
101638.1576
101638.0985
101638.0346
101637.9656
101637.8908
101637.8096
101637.7211
101637.6246
101637.5188
101637.4027
101637.275
101637.1345
101636.0416
101625.9076
101631.4286
101631.4275
101631.4249
101631.4208
101631.4154
101631.4086
101631.4003
101631.3906
101631.3793
101631.3665
101631.3521
101631.336
101631.3182
101631.2986
101631.2771
101631.2536
101631.228
101631.2002
101631.1701
101631.1374
101631.1021
101631.064
101631.0228
101630.9784
101630.9303
101630.8785
101630.8225
101630.7619
101630.6962
101630.6249
101630.5474
101630.4629
101630.3705
101630.2692
101630.1578
101630.0349
101629.8994
101629.7501
101628.5372
101617.5125
101624.0968
101624.0957
101624.0932
101624.0892
101624.0839
101624.0772
101624.0691
101624.0595
101624.0484
101624.0358
101624.0216
101624.0058
101623.9882
101623.9688
101623.9475
101623.9242
101623.8987
101623.8711
101623.841
101623.8084
101623.773
101623.7347
101623.6933
101623.6484
101623.5999
101623.5473
101623.4903
101623.4284
101623.3612
101623.288
101623.2082
101623.1209
101623.0251
101622.9196
101622.8032
101622.6742
101622.5314
101622.3732
101621.034
101609.1128
101616.7663
101616.7652
101616.7627
101616.7588
101616.7536
101616.747
101616.7391
101616.7297
101616.7188
101616.7065
101616.6925
101616.6769
101616.6596
101616.6404
101616.6194
101616.5964
101616.5712
101616.5437
101616.5138
101616.4813
101616.446
101616.4077
101616.3661
101616.321
101616.272
101616.2189
101616.1612
101616.0983
101616.0299
101615.9552
101615.8735
101615.7838
101615.6852
101615.5762
101615.4555
101615.3212
101615.1715
101615.0039
101613.529
101600.6926
101609.4369
101609.4358
101609.4334
101609.4296
101609.4245
101609.4181
101609.4103
101609.4012
101609.3905
101609.3784
101609.3648
101609.3495
101609.3324
101609.3136
101609.2929
101609.2702
101609.2453
101609.2181
101609.1885
101609.1562
101609.1211
101609.0828
101609.0413
101608.9961
101608.947
101608.8935
101608.8352
101608.7717
101608.7024
101608.6265
101608.5434
101608.452
101608.3511
101608.2395
101608.1154
101607.9767
101607.8209
101607.6437
101606.0236
101592.2457
101602.1086
101602.1076
101602.1052
101602.1016
101602.0966
101602.0904
101602.0828
101602.0739
101602.0635
101602.0517
101602.0384
101602.0234
101602.0068
101601.9883
101601.968
101601.9457
101601.9212
101601.8944
101601.8651
101601.8331
101601.7983
101601.7603
101601.7189
101601.6738
101601.6247
101601.5711
101601.5126
101601.4487
101601.3788
101601.3023
101601.2181
101601.1255
101601.0232
101600.9098
101600.7834
101600.6415
101600.4811
101600.2953
101598.5194
101583.645
101594.7815
101594.7805
101594.7782
101594.7747
101594.7699
101594.7638
101594.7565
101594.7478
101594.7378
101594.7263
101594.7133
101594.6987
101594.6825
101594.6645
101594.6446
101594.6228
101594.5987
101594.5724
101594.5436
101594.5121
101594.4777
101594.4401
101594.399
101594.3542
101594.3053
101594.2519
101594.1934
101594.1294
101594.0594
101593.9825
101593.8979
101593.8047
101593.7017
101593.5874
101593.4598
101593.3165
101593.1538
101592.963
101591.0319
101574.3747
101587.4555
101587.4545
101587.4523
101587.4489
101587.4442
101587.4384
101587.4313
101587.4229
101587.4132
101587.4021
101587.3895
101587.3754
101587.3596
101587.3421
101587.3228
101587.3015
101587.278
101587.2523
101587.224
101587.1931
101587.1592
101587.1222
101587.0817
101587.0373
101586.9888
101586.9357
101586.8776
101586.8139
101586.744
101586.6672
101586.5827
101586.4896
101586.3866
101586.2723
101586.145
101586.002
101585.8398
101585.6493
101583.5903
101565.8658
101580.1305
101580.1295
101580.1274
101580.1241
101580.1197
101580.1141
101580.1073
101580.0992
101580.0899
101580.0791
101580.067
101580.0534
101580.0382
101580.0212
101580.0025
101579.9818
101579.959
101579.9339
101579.9063
101579.8761
101579.843
101579.8066
101579.7668
101579.7231
101579.6753
101579.6228
101579.5653
101579.5021
101579.4328
101579.3566
101579.2727
101579.1801
101579.0779
101578.9647
101578.8387
101578.6978
101578.5389
101578.3535
101576.1748
101557.8894
101572.8065
101572.8056
101572.8035
101572.8004
101572.7962
101572.7908
101572.7843
101572.7766
101572.7676
101572.7574
101572.7457
101572.7327
101572.718
101572.7017
101572.6836
101572.6637
101572.6416
101572.6173
101572.5906
101572.5612
101572.5288
101572.4934
101572.4544
101572.4116
101572.3646
101572.3131
101572.2564
101572.1941
101572.1257
101572.0505
101571.9676
101571.8763
101571.7756
101571.6642
101571.5407
101571.4033
101571.2499
101571.0725
101568.7802
101549.8094
101565.4834
101565.4826
101565.4806
101565.4777
101565.4736
101565.4686
101565.4624
101565.455
101565.4465
101565.4367
101565.4257
101565.4132
101565.3992
101565.3836
101565.3663
101565.3471
101565.3259
101565.3024
101565.2766
101565.2482
101565.2169
101565.1824
101565.1445
101565.1028
101565.0569
101565.0065
101564.951
101564.8899
101564.8228
101564.7489
101564.6676
101564.578
101564.4794
101564.3706
101564.2505
101564.1178
101563.9709
101563.8027
101561.3937
101541.88
101558.1613
101558.1605
101558.1587
101558.1559
101558.1521
101558.1473
101558.1414
101558.1345
101558.1265
101558.1172
101558.1067
101558.0949
101558.0816
101558.0668
101558.0503
101558.032
101558.0117
101557.9893
101557.9645
101557.9372
101557.907
101557.8737
101557.8371
101557.7966
101557.7521
101557.703
101557.6489
101557.5894
101557.5238
101557.4517
101557.3723
101557.285
101557.189
101557.0835
101556.9675
101556.8401
101556.7004
101556.5415
101554.0178
101533.8691
101550.84
101550.8393
101550.8375
101550.8349
101550.8314
101550.8269
101550.8214
101550.8149
101550.8074
101550.7987
101550.7888
101550.7777
101550.7652
101550.7512
101550.7356
101550.7183
101550.6991
101550.6777
101550.6542
101550.6281
101550.5992
101550.5673
101550.5321
101550.4931
101550.4501
101550.4026
101550.3503
101550.2925
101550.2289
101550.1588
101550.0818
101549.9972
101549.9043
101549.8024
101549.691
101549.5695
101549.4373
101549.2873
101546.6418
101525.8724
101543.5195
101543.5188
101543.5173
101543.5148
101543.5115
101543.5074
101543.5023
101543.4963
101543.4893
101543.4812
101543.472
101543.4616
101543.4499
101543.4369
101543.4223
101543.406
101543.3879
101543.3678
101543.3455
101543.3208
101543.2934
101543.263
101543.2294
101543.1921
101543.1509
101543.1053
101543.0549
101542.9992
101542.9378
101542.8702
101542.7958
101542.7141
101542.6247
101542.527
101542.4206
101542.3051
101542.1804
101542.0389
101539.2702
101517.8506
101536.1998
101536.1992
101536.1977
101536.1955
101536.1925
101536.1886
101536.184
101536.1785
101536.172
101536.1646
101536.1561
101536.1466
101536.1358
101536.1237
101536.1101
101536.095
101536.0782
101536.0594
101536.0385
101536.0153
101535.9895
101535.9609
101535.929
101535.8936
101535.8544
101535.8109
101535.7627
101535.7093
101535.6504
101535.5855
101535.5141
101535.4357
101535.3501
101535.2567
101535.1555
101535.0462
101534.9289
101534.7953
101531.8968
101509.8332
101528.8808
101528.8802
101528.8789
101528.8768
101528.8741
101528.8707
101528.8664
101528.8614
101528.8556
101528.8489
101528.8412
101528.8324
101528.8226
101528.8115
101528.7991
101528.7852
101528.7697
101528.7524
101528.7331
101528.7115
101528.6875
101528.6607
101528.6308
101528.5975
101528.5605
101528.5193
101528.4735
101528.4228
101528.3666
101528.3047
101528.2365
101528.1617
101528.08
101527.9913
101527.8953
101527.7921
101527.6821
101527.5558
101524.5232
101501.7957
101521.5623
101521.5618
101521.5606
101521.5588
101521.5564
101521.5533
101521.5496
101521.5451
101521.5399
101521.5339
101521.527
101521.5192
101521.5103
101521.5004
101521.4892
101521.4766
101521.4625
101521.4468
101521.4291
101521.4094
101521.3872
101521.3625
101521.3348
101521.3038
101521.2691
101521.2305
101521.1874
101521.1395
101521.0863
101521.0275
101520.9628
101520.8917
101520.8142
101520.7301
101520.6395
101520.5424
101520.4394
101520.3199
101517.1469
101493.7656
101514.2445
101514.244
101514.2429
101514.2414
101514.2393
101514.2366
101514.2333
101514.2294
101514.2249
101514.2196
101514.2136
101514.2067
101514.1989
101514.1901
101514.1802
101514.1691
101514.1565
101514.1424
101514.1265
101514.1087
101514.0886
101514.0661
101514.0407
101514.0122
101513.9802
101513.9443
101513.9041
101513.8592
101513.8093
101513.7539
101513.6928
101513.6257
101513.5524
101513.473
101513.3876
101513.2966
101513.2004
101513.0873
101509.772
101485.7224
101506.927
101506.9266
101506.9258
101506.9244
101506.9226
101506.9204
101506.9176
101506.9143
101506.9104
101506.906
101506.9008
101506.8949
101506.8883
101506.8807
101506.8721
101506.8625
101506.8515
101506.8392
101506.8252
101506.8094
101506.7916
101506.7714
101506.7485
101506.7227
101506.6935
101506.6606
101506.6235
101506.5819
101506.5354
101506.4836
101506.4263
101506.3632
101506.2943
101506.2196
101506.1394
101506.0542
101505.9644
101505.8574
101502.3947
101477.6855
101499.61
101499.6097
101499.609
101499.6079
101499.6064
101499.6046
101499.6023
101499.5996
101499.5965
101499.5928
101499.5886
101499.5838
101499.5782
101499.5719
101499.5648
101499.5567
101499.5475
101499.537
101499.525
101499.5114
101499.4959
101499.4783
101499.4581
101499.4352
101499.409
101499.3793
101499.3456
101499.3075
101499.2646
101499.2166
101499.1632
101499.1042
101499.0396
101498.9696
101498.8944
101498.8147
101498.7312
101498.6295
101495.0245
101469.6405
101492.2933
101492.293
101492.2925
101492.2917
101492.2906
101492.2892
101492.2874
101492.2854
101492.2829
101492.2801
101492.2768
101492.2731
101492.2688
101492.2638
101492.2581
101492.2516
101492.2442
101492.2357
101492.2258
101492.2146
101492.2016
101492.1866
101492.1693
101492.1494
101492.1266
101492.1003
101492.0701
101492.0357
101491.9967
101491.9526
101491.9033
101491.8485
101491.7882
101491.7227
101491.6524
101491.5779
101491.5001
101491.4033
101487.6578
101461.5876
101484.9769
101484.9767
101484.9763
101484.9757
101484.975
101484.974
101484.9728
101484.9714
101484.9697
101484.9677
101484.9654
101484.9628
101484.9597
101484.9561
101484.952
101484.9472
101484.9416
101484.9351
101484.9276
101484.9187
101484.9084
101484.8962
101484.882
101484.8654
101484.846
101484.8233
101484.797
101484.7666
101484.7316
101484.6916
101484.6465
101484.5959
101484.5399
101484.4788
101484.4131
101484.3435
101484.271
101484.1784
101480.2964
101453.5212
101477.6606
101477.6604
101477.6602
101477.6599
101477.6595
101477.659
101477.6584
101477.6576
101477.6567
101477.6556
101477.6543
101477.6528
101477.651
101477.6488
101477.6463
101477.6432
101477.6396
101477.6352
101477.63
101477.6237
101477.6161
101477.607
101477.596
101477.5829
101477.5671
101477.5484
101477.5261
101477.4998
101477.4691
101477.4335
101477.3926
101477.3463
101477.2946
101477.2377
101477.1762
101477.1111
101477.0435
101476.9542
101472.9366
101445.4441
101470.3444
101470.3443
101470.3442
101470.3442
101470.3442
101470.3441
101470.344
101470.3439
101470.3438
101470.3436
101470.3433
101470.3429
101470.3424
101470.3417
101470.3408
101470.3395
101470.3379
101470.3358
101470.3329
101470.3293
101470.3247
101470.3187
101470.3112
101470.3017
101470.2899
101470.2752
101470.2573
101470.2355
101470.2092
101470.1781
101470.1417
101470.0997
101470.0521
101469.9992
101469.9417
101469.8806
101469.8172
101469.7304
101465.5819
101437.3538
101463.0281
101463.0281
101463.0283
101463.0285
101463.0288
101463.0292
101463.0297
101463.0303
101463.0309
101463.0316
101463.0323
101463.0331
101463.0339
101463.0347
101463.0355
101463.0361
101463.0365
101463.0366
101463.0363
101463.0354
101463.0338
101463.0312
101463.0272
101463.0217
101463.014
101463.0037
101462.9904
101462.9733
101462.9519
101462.9255
101462.8937
101462.856
101462.8125
101462.7634
101462.7093
101462.6516
101462.5917
101462.5064
101458.2321
101429.2501
101455.7118
101455.7119
101455.7122
101455.7127
101455.7134
101455.7142
101455.7153
101455.7165
101455.7179
101455.7195
101455.7213
101455.7233
101455.7254
101455.7277
101455.7301
101455.7326
101455.7351
101455.7375
101455.7398
101455.7418
101455.7434
101455.7442
101455.744
101455.7425
101455.7393
101455.7337
101455.7252
101455.7132
101455.6969
101455.6756
101455.6486
101455.6154
101455.5759
101455.5302
101455.4791
101455.424
101455.3669
101455.2821
101450.8896
101421.1323
101448.3953
101448.3955
101448.396
101448.3967
101448.3977
101448.3991
101448.4006
101448.4025
101448.4047
101448.4072
101448.4101
101448.4132
101448.4167
101448.4205
101448.4246
101448.429
101448.4336
101448.4384
101448.4434
101448.4483
101448.4531
101448.4575
101448.4613
101448.4641
101448.4655
101448.4649
101448.4617
101448.4551
101448.4443
101448.4283
101448.4064
101448.3779
101448.3424
101448.2998
101448.2511
101448.1978
101448.1423
101448.0572
101443.5534
101413.0009
101441.0786
101441.0788
101441.0794
101441.0805
101441.0818
101441.0836
101441.0857
101441.0883
101441.0913
101441.0947
101441.0985
101441.1028
101441.1076
101441.1129
101441.1187
101441.125
101441.1318
101441.139
101441.1467
101441.1546
101441.1627
101441.1709
101441.1788
101441.1861
101441.1924
101441.1971
101441.1995
101441.1988
101441.1939
101441.1838
101441.1674
101441.1438
101441.1122
101441.0725
101441.0254
101440.9728
101440.9174
101440.8309
101436.2294
101404.8552
101433.7615
101433.7618
101433.7626
101433.7639
101433.7656
101433.7678
101433.7705
101433.7737
101433.7774
101433.7816
101433.7865
101433.792
101433.7981
101433.8049
101433.8124
101433.8206
101433.8295
101433.8392
101433.8495
101433.8605
101433.8721
101433.884
101433.8962
101433.9083
101433.9197
101433.9301
101433.9385
101433.9441
101433.9457
101433.942
101433.9317
101433.9133
101433.8858
101433.8487
101433.8024
101433.749
101433.6919
101433.6023
101428.9092
101396.6946
101426.444
101426.4444
101426.4453
101426.4468
101426.4489
101426.4515
101426.4547
101426.4585
101426.463
101426.4681
101426.474
101426.4806
101426.488
101426.4962
101426.5054
101426.5155
101426.5265
101426.5386
101426.5517
101426.5658
101426.5808
101426.5967
101426.6132
101426.6302
101426.6471
101426.6635
101426.6784
101426.6909
101426.6996
101426.7031
101426.6994
101426.6868
101426.6637
101426.629
101426.5827
101426.5267
101426.4652
101426.3702
101421.5921
101388.5181
101419.126
101419.1264
101419.1275
101419.1293
101419.1317
101419.1347
101419.1384
101419.1428
101419.148
101419.1539
101419.1607
101419.1684
101419.1771
101419.1868
101419.1976
101419.2095
101419.2227
101419.2371
101419.2529
101419.2701
101419.2886
101419.3085
101419.3295
101419.3516
101419.3742
101419.3969
101419.4188
101419.4389
101419.4555
101419.4669
101419.4708
101419.4649
101419.4467
101419.4143
101419.3672
101419.3067
101419.2372
101419.1329
101414.2685
101380.3257
101411.8074
101411.8079
101411.8092
101411.8111
101411.8138
101411.8172
101411.8214
101411.8264
101411.8323
101411.839
101411.8467
101411.8555
101411.8653
101411.8764
101411.8888
101411.9025
101411.9177
101411.9345
101411.953
101411.9732
101411.9952
101412.019
101412.0447
101412.0719
101412.1005
101412.13
101412.1594
101412.1877
101412.2131
101412.2335
101412.2462
101412.2481
101412.2358
101412.2061
101412.1574
101412.0899
101412.0079
101411.8883
101406.9132
101372.1172
101404.4882
101404.4887
101404.4901
101404.4923
101404.4953
101404.4991
101404.5037
101404.5092
101404.5157
101404.5232
101404.5318
101404.5416
101404.5526
101404.565
101404.5788
101404.5943
101404.6115
101404.6305
101404.6516
101404.6748
101404.7002
101404.728
101404.7583
101404.7909
101404.8256
101404.8621
101404.8995
101404.9368
101404.972
101405.0028
101405.0259
101405.0372
101405.0322
101405.0061
101404.9553
101404.8784
101404.7782
101404.6341
101399.4984
101363.8952
101397.1682
101397.1689
101397.1704
101397.1728
101397.176
101397.1801
101397.1852
101397.1912
101397.1983
101397.2065
101397.2159
101397.2266
101397.2387
101397.2523
101397.2676
101397.2847
101397.3038
101397.325
101397.3485
101397.3746
101397.4034
101397.4351
101397.4698
101397.5078
101397.5488
101397.5926
101397.6386
101397.6856
101397.7318
101397.7745
101397.8099
101397.8328
101397.8373
101397.8165
101397.7638
101397.6751
101397.55
101397.3683
101391.9641
101355.6597
101389.8475
101389.8482
101389.8498
101389.8524
101389.8559
101389.8603
101389.8658
101389.8723
101389.8799
101389.8888
101389.8989
101389.9104
101389.9235
101389.9383
101389.9549
101389.9736
101389.9944
101390.0176
101390.0435
101390.0723
101390.1043
101390.1397
101390.1789
101390.2221
101390.2695
101390.3208
101390.3758
101390.4334
101390.4918
101390.5481
101390.5981
101390.6356
101390.6528
101390.64
101390.5868
101390.4844
101390.3261
101390.0887
101384.2097
101347.4238
101382.526
101382.5267
101382.5284
101382.5311
101382.5349
101382.5396
101382.5454
101382.5523
101382.5605
101382.5699
101382.5807
101382.593
101382.607
101382.6229
101382.6407
101382.6607
101382.6832
101382.7083
101382.7363
101382.7676
101382.8025
101382.8415
101382.8849
101382.9333
101382.9869
101383.0459
101383.1101
101383.1789
101383.2507
101383.3227
101383.3901
101383.446
101383.4803
101383.48
101383.4293
101383.3122
101383.1114
101382.7896
101376.107
101339.1959
101375.2036
101375.2043
101375.2061
101375.209
101375.2129
101375.2179
101375.224
101375.2313
101375.2399
101375.2498
101375.2612
101375.2742
101375.289
101375.3058
101375.3247
101375.346
101375.3699
101375.3967
101375.4267
101375.4602
101375.4979
101375.54
101375.5874
101375.6406
101375.7001
101375.7667
101375.8404
101375.9209
101376.0073
101376.0968
101376.1848
101376.2637
101376.3212
101376.3401
101376.2976
101376.1665
101375.9135
101375.4671
101367.506
101331.0013
101367.8802
101367.881
101367.8829
101367.8859
101367.8899
101367.8951
101367.9015
101367.9091
101367.9181
101367.9285
101367.9404
101367.954
101367.9695
101367.987
101368.0069
101368.0293
101368.0544
101368.0827
101368.1144
101368.15
101368.1899
101368.2349
101368.2858
101368.3433
101368.4084
101368.4821
101368.5651
101368.6577
101368.7594
101368.8684
101368.9803
101369.0875
101369.1762
101369.2241
101369.1987
101369.0578
101368.7517
101368.0861
101358.2919
101322.8051
101360.556
101360.5568
101360.5587
101360.5617
101360.5659
101360.5713
101360.5779
101360.5858
101360.5951
101360.6058
101360.6181
101360.6322
101360.6483
101360.6665
101360.6871
101360.7104
101360.7367
101360.7662
101360.7993
101360.8365
101360.8784
101360.9258
101360.9795
101361.0407
101361.1108
101361.191
101361.2827
101361.3871
101361.5046
101361.6343
101361.7732
101361.9147
101362.0445
101362.1351
101362.141
101362.0076
101361.6751
101360.4743
101348.4195
101314.5272
101353.2308
101353.2315
101353.2334
101353.2365
101353.2408
101353.2463
101353.2532
101353.2613
101353.2708
101353.2818
101353.2944
101353.3089
101353.3253
101353.3441
101353.3654
101353.3894
101353.4165
101353.447
101353.4813
101353.5198
101353.5633
101353.6124
101353.6684
101353.7325
101353.8066
101353.8925
101353.9921
101354.1076
101354.2405
101354.3916
101354.5596
101354.7407
101354.923
101355.0737
101355.1312
101355.0211
101354.622
101352.2326
101337.5663
101305.5909
101345.9027
101345.9032
101345.9048
101345.908
101345.9123
101345.9179
101345.9248
101345.9331
101345.9427
101345.9538
101345.9666
101345.9811
101345.9978
101346.0168
101346.0384
101346.0628
101346.0905
101346.1216
101346.1566
101346.1958
101346.24
101346.29
101346.3471
101346.4128
101346.4893
101346.5789
101346.6843
101346.8085
101346.954
101347.1221
101347.312
101347.5191
101347.7241
101347.8455
101347.5444
101345.9279
101343.4997
101340.2205
101324.9817
101294.9679
101332.6185
101332.5687
101332.4715
101332.4144
101332.368
101332.3131
101332.2565
101332.1989
101332.1383
101332.0701
101331.9933
101331.9127
101331.8349
101331.7638
101331.6965
101331.6326
101331.5883
101331.5454
101331.5001
101331.4551
101331.4078
101331.3668
101331.3259
101331.2852
101331.2439
101331.2154
101331.1757
101331.0431
101330.7008
101329.9443
101328.5706
101326.4438
101323.4953
101319.2642
101309.8296
101291.2334
101281.8325
101298.9819
101310.7337
101277.869
100964.0054
100964.0281
100964.1724
100964.3581
100964.5079
100964.7532
100965.0298
100965.3508
100965.72
100966.1406
100966.6165
100967.1521
100967.7531
100968.4254
100969.175
100970.0116
100970.9275
100971.955
100973.097
100974.3693
100975.7875
100977.3561
100979.1301
100981.1379
100983.461
100986.1718
100989.3199
100993.113
100997.7344
101003.3762
101010.218
101018.5436
101028.5563
101039.9112
101050.3134
101057.5359
101074.5484
101152.4184
101242.3584
101242.1553
100900.7444
100900.747
100900.7548
100900.7603
100900.765
100900.7692
100900.7731
100900.777
100900.7811
100900.7857
100900.7909
100900.7969
100900.8036
100900.8115
100900.8208
100900.8316
100900.8436
100900.8583
100900.8761
100900.8971
100900.922
100900.953
100900.994
100901.0493
100901.1288
100901.2632
100901.4964
100901.8939
100902.5898
100903.7264
100905.2948
100907.1152
100909.0365
100911.0483
100912.8389
100913.3814
100913.1626
100940.3052
101017.9391
101098.6451
100900.6386
100900.6383
100900.6383
100900.6384
100900.6384
100900.6384
100900.6385