/*--------------------------------*- C++ -*----------------------------------*\
| =========                 |                                                 |
| \\      /  F ield         | OpenFOAM: The Open Source CFD Toolbox           |
|  \\    /   O peration     | Version:  v1912                                 |
|   \\  /    A nd           | Website:  www.openfoam.com                      |
|    \\/     M anipulation  |                                                 |
\*---------------------------------------------------------------------------*/
FoamFile
{
    version     2.0;
    format      ascii;
    class       volScalarField;
    location    "0.3";
    object      p_rgh_0;
}
// * * * * * * * * * * * * * * * * * * * * * * * * * * * * * * * * * * * * * //

dimensions      [1 -1 -2 0 0 0 0];


internalField   nonuniform List<scalar> 
4800
(
101759.2845
101759.2831
101759.2802
101759.2757
101759.2696
101759.2621
101759.2529
101759.2423
101759.2301
101759.2163
101759.201
101759.1842
101759.1658
101759.1459
101759.1244
101759.1015
101759.0771
101759.0513
101759.0241
101758.9957
101758.966
101758.9352
101758.9036
101758.8711
101758.8382
101758.805
101758.7719
101758.7393
101758.7077
101758.6778
101758.6503
101758.6259
101758.6059
101758.5914
101758.5838
101758.5847
101758.5958
101758.6147
101758.6704
101758.5801
101751.9296
101751.9282
101751.9253
101751.9208
101751.9147
101751.9072
101751.898
101751.8874
101751.8752
101751.8614
101751.8461
101751.8292
101751.8108
101751.7909
101751.7695
101751.7465
101751.7221
101751.6962
101751.669
101751.6405
101751.6107
101751.5799
101751.5481
101751.5155
101751.4824
101751.449
101751.4157
101751.3828
101751.3509
101751.3205
101751.2925
101751.2676
101751.2468
101751.2315
101751.223
101751.223
101751.2331
101751.2533
101751.3004
101751.1057
101744.576
101744.5747
101744.5717
101744.5672
101744.5612
101744.5536
101744.5445
101744.5338
101744.5216
101744.5078
101744.4925
101744.4756
101744.4572
101744.4373
101744.4158
101744.3928
101744.3683
101744.3424
101744.315
101744.2864
101744.2565
101744.2255
101744.1935
101744.1606
101744.1272
101744.0934
101744.0596
101744.0261
101743.9935
101743.9623
101743.9333
101743.9072
101743.8851
101743.8682
101743.8579
101743.856
101743.8644
101743.8848
101743.921
101743.4729
101737.2237
101737.2224
101737.2195
101737.215
101737.2089
101737.2013
101737.1922
101737.1816
101737.1693
101737.1556
101737.1402
101737.1234
101737.1049
101737.0849
101737.0634
101737.0403
101737.0158
101736.9897
101736.9623
101736.9335
101736.9033
101736.8721
101736.8397
101736.8065
101736.7725
101736.7382
101736.7036
101736.6693
101736.6357
101736.6033
101736.5728
101736.545
101736.5208
101736.5015
101736.4886
101736.4837
101736.489
101736.5077
101736.5274
101735.7788
101729.8728
101729.8715
101729.8685
101729.8641
101729.858
101729.8504
101729.8413
101729.8307
101729.8184
101729.8047
101729.7893
101729.7724
101729.754
101729.7339
101729.7123
101729.6892
101729.6645
101729.6383
101729.6107
101729.5817
101729.5513
101729.5196
101729.4869
101729.4531
101729.4186
101729.3834
101729.348
101729.3126
101729.2776
101729.2436
101729.2112
101729.181
101729.1542
101729.1317
101729.1151
101729.106
101729.1069
101729.1215
101729.1173
101728.0183
101722.5232
101722.5219
101722.519
101722.5145
101722.5085
101722.5009
101722.4918
101722.4811
101722.4689
101722.4551
101722.4398
101722.4229
101722.4044
101722.3843
101722.3626
101722.3394
101722.3146
101722.2882
101722.2604
101722.2311
101722.2003
101722.1683
101722.135
101722.1006
101722.0653
101722.0292
101721.9927
101721.9559
101721.9193
101721.8834
101721.8486
101721.8157
101721.7855
101721.7591
101721.7377
101721.7233
101721.718
101721.7261
101721.6871
101720.1858
101715.1749
101715.1737
101715.1707
101715.1663
101715.1602
101715.1527
101715.1436
101715.1329
101715.1207
101715.1069
101715.0916
101715.0746
101715.0561
101715.036
101715.0142
101714.9909
101714.9659
101714.9394
101714.9113
101714.8817
101714.8506
101714.8181
101714.7842
101714.7491
101714.7129
101714.6757
101714.6379
101714.5995
101714.5611
101714.5228
101714.4853
101714.4491
101714.415
101714.3839
101714.357
101714.3358
101714.3226
101714.3215
101714.2384
101712.2774
101707.828
101707.8268
101707.8238
101707.8194
101707.8134
101707.8058
101707.7967
101707.7861
101707.7739
101707.7601
101707.7447
101707.7278
101707.7092
101707.689
101707.6672
101707.6437
101707.6186
101707.5919
101707.5635
101707.5336
101707.502
101707.469
101707.4345
101707.3986
101707.3614
101707.323
101707.2837
101707.2436
101707.2031
101707.1623
101707.1217
101707.0818
101707.0433
101707.0068
101706.9734
101706.9444
101706.9216
101706.9089
101706.7781
101704.2831
101700.4824
101700.4812
101700.4783
101700.4738
101700.4678
101700.4603
101700.4512
101700.4406
101700.4284
101700.4146
101700.3993
101700.3823
101700.3637
101700.3434
101700.3215
101700.298
101700.2727
101700.2457
101700.2171
101700.1868
101700.1548
101700.1212
101700.086
101700.0492
101700.0109
101699.9713
101699.9304
101699.8884
101699.8455
101699.8019
101699.758
101699.7141
101699.6707
101699.6283
101699.5877
101699.5499
101699.5161
101699.4896
101699.2918
101696.2022
101693.1382
101693.1369
101693.134
101693.1296
101693.1236
101693.1161
101693.1071
101693.0965
101693.0843
101693.0705
101693.0552
101693.0382
101693.0196
101692.9993
101692.9773
101692.9536
101692.9282
101692.901
101692.8721
101692.8414
101692.8089
101692.7747
101692.7387
101692.701
101692.6617
101692.6206
101692.5781
101692.5341
101692.4887
101692.4422
101692.3947
101692.3464
101692.2978
101692.2491
101692.2008
101692.1535
101692.1077
101692.0657
101691.7878
101688.0431
101685.7953
101685.794
101685.7911
101685.7867
101685.7808
101685.7733
101685.7643
101685.7537
101685.7416
101685.7278
101685.7125
101685.6955
101685.6769
101685.6565
101685.6345
101685.6107
101685.5851
101685.5577
101685.5285
101685.4974
101685.4645
101685.4296
101685.3929
101685.3543
101685.3137
101685.2713
101685.227
101685.1808
101685.1329
101685.0833
101685.032
101684.9793
101684.9252
101684.8699
101684.8136
101684.7564
101684.6984
101684.6403
101684.2763
101679.8175
101678.4537
101678.4524
101678.4496
101678.4452
101678.4392
101678.4318
101678.4228
101678.4123
101678.4002
101678.3865
101678.3712
101678.3542
101678.3356
101678.3152
101678.2931
101678.2692
101678.2435
101678.2159
101678.1864
101678.1549
101678.1215
101678.0861
101678.0486
101678.009
101677.9672
101677.9233
101677.8773
101677.829
101677.7784
101677.7256
101677.6706
101677.6132
101677.5536
101677.4915
101677.427
101677.3599
101677.2896
101677.2162
101676.7605
101671.5427
101671.1134
101671.1121
101671.1093
101671.1049
101671.0991
101671.0917
101671.0827
101671.0723
101671.0602
101671.0466
101671.0313
101671.0144
101670.9957
101670.9753
101670.9532
101670.9292
101670.9034
101670.8756
101670.8458
101670.814
101670.7801
101670.7441
101670.7058
101670.6653
101670.6224
101670.577
101670.5292
101670.4787
101670.4256
101670.3696
101670.3107
101670.2487
101670.1835
101670.1147
101670.0421
101669.9652
101669.883
101669.7951
101669.2431
101663.2362
101663.7744
101663.7732
101663.7704
101663.766
101663.7602
101663.7529
101663.744
101663.7336
101663.7216
101663.708
101663.6928
101663.6759
101663.6573
101663.637
101663.6148
101663.5908
101663.5648
101663.5369
101663.5069
101663.4747
101663.4404
101663.4038
101663.3648
101663.3233
101663.2793
101663.2325
101663.1829
101663.1304
101663.0746
101663.0155
101662.9529
101662.8863
101662.8156
101662.7402
101662.6597
101662.5733
101662.4798
101662.3784
101661.7256
101654.9113
101656.4367
101656.4355
101656.4327
101656.4284
101656.4227
101656.4154
101656.4066
101656.3963
101656.3844
101656.3709
101656.3557
101656.3389
101656.3204
101656.3001
101656.2779
101656.2538
101656.2278
101656.1997
101656.1696
101656.1371
101656.1024
101656.0653
101656.0256
101655.9833
101655.9381
101655.89
101655.8388
101655.7841
101655.7259
101655.6638
101655.5975
101655.5265
101655.4505
101655.3688
101655.2807
101655.1852
101655.0812
101654.9673
101654.2089
101646.5747
101649.1004
101649.0992
101649.0964
101649.0922
101649.0864
101649.0792
101649.0705
101649.0603
101649.0485
101649.0351
101649.0201
101649.0034
101648.9849
101648.9647
101648.9425
101648.9185
101648.8924
101648.8643
101648.8339
101648.8013
101648.7662
101648.7286
101648.6883
101648.6452
101648.599
101648.5497
101648.4968
101648.4403
101648.3797
101648.3147
101648.2449
101648.1698
101648.0887
101648.001
101647.9057
101647.8019
101647.6881
101647.5629
101646.6949
101638.227
101641.7653
101641.7641
101641.7614
101641.7572
101641.7515
101641.7444
101641.7358
101641.7257
101641.714
101641.7007
101641.6858
101641.6692
101641.6509
101641.6308
101641.6087
101641.5848
101641.5587
101641.5305
101641.5001
101641.4673
101641.4319
101641.3939
101641.3531
101641.3093
101641.2622
101641.2117
101641.1574
101641.099
101641.0363
101640.9687
101640.8956
101640.8166
101640.7309
101640.6376
101640.5356
101640.424
101640.3012
101640.166
101639.1858
101629.8642
101634.4314
101634.4303
101634.4276
101634.4235
101634.4179
101634.4109
101634.4024
101634.3924
101634.3809
101634.3678
101634.353
101634.3366
101634.3184
101634.2984
101634.2765
101634.2526
101634.2267
101634.1985
101634.168
101634.1351
101634.0995
101634.0612
101634.02
101633.9755
101633.9277
101633.8761
101633.8206
101633.7607
101633.6959
101633.6259
101633.55
101633.4674
101633.3774
101633.279
101633.171
101633.0522
101632.9212
101632.7768
101631.6822
101621.4846
101627.0989
101627.0977
101627.0951
101627.091
101627.0856
101627.0787
101627.0703
101627.0605
101627.0491
101627.0362
101627.0216
101627.0054
101626.9874
101626.9676
101626.9459
101626.9221
101626.8963
101626.8682
101626.8378
101626.8048
101626.7692
101626.7306
101626.689
101626.6441
101626.5956
101626.5432
101626.4866
101626.4253
101626.3589
101626.2868
101626.2083
101626.1226
101626.0288
101625.9259
101625.8124
101625.6871
101625.5485
101625.3954
101624.1819
101613.0918
101619.7675
101619.7664
101619.7638
101619.7598
101619.7545
101619.7477
101619.7395
101619.7298
101619.7186
101619.7059
101619.6916
101619.6756
101619.6578
101619.6383
101619.6168
101619.5933
101619.5676
101619.5397
101619.5094
101619.4765
101619.4408
101619.4022
101619.3604
101619.3152
101619.2662
101619.2131
101619.1556
101619.0932
101619.0254
101618.9515
101618.8708
101618.7825
101618.6855
101618.5787
101618.4605
101618.3293
101618.1837
101618.0219
101616.6828
101604.6963
101612.4374
101612.4363
101612.4338
101612.4299
101612.4246
101612.418
101612.41
101612.4005
101612.3895
101612.3771
101612.363
101612.3473
101612.3298
101612.3105
101612.2893
101612.2661
101612.2407
101612.213
101612.1829
101612.1501
101612.1146
101612.076
101612.0341
101611.9887
101611.9394
101611.8859
101611.8278
101611.7645
101611.6955
101611.6202
101611.5379
101611.4474
101611.3479
101611.2379
101611.1157
101610.9796
101610.8275
101610.6565
101609.1823
101596.2776
101605.1084
101605.1074
101605.1049
101605.1011
101605.096
101605.0895
101605.0817
101605.0724
101605.0617
101605.0495
101605.0357
101605.0203
101605.0032
101604.9843
101604.9634
101604.9405
101604.9155
101604.8881
101604.8583
101604.8258
101604.7905
101604.752
101604.7103
101604.6648
101604.6154
101604.5617
101604.5031
101604.4393
101604.3696
101604.2933
101604.2097
101604.1177
101604.0162
101603.9038
101603.7787
101603.6387
101603.481
101603.3008
101601.6824
101587.828
101597.7806
101597.7796
101597.7772
101597.7735
101597.7685
101597.7623
101597.7546
101597.7456
101597.7352
101597.7233
101597.7099
101597.6948
101597.6781
101597.6595
101597.6391
101597.6166
101597.592
101597.565
101597.5356
101597.5035
101597.4685
101597.4304
101597.3888
101597.3436
101597.2943
101597.2405
101597.1818
101597.1177
101597.0476
101596.9707
101596.8864
101596.7935
101596.6908
101596.577
101596.45
101596.3075
101596.1459
101595.9581
101594.186
101579.187
101590.454
101590.453
101590.4506
101590.4471
101590.4422
101590.4362
101590.4288
101590.4201
101590.4099
101590.3984
101590.3853
101590.3707
101590.3544
101590.3363
101590.3163
101590.2944
101590.2702
101590.2438
101590.2149
101590.1833
101590.1487
101590.111
101590.0699
101590.025
101589.976
101589.9224
101589.8639
101589.7998
101589.7297
101589.6527
101589.5681
101589.4748
101589.3718
101589.2574
101589.1299
101588.9865
101588.8237
101588.6326
101586.7121
101569.915
101583.1284
101583.1274
101583.1252
101583.1217
101583.1171
101583.1112
101583.1041
101583.0957
101583.0859
101583.0747
101583.0621
101583.0479
101583.0321
101583.0145
101582.9951
101582.9737
101582.9502
101582.9244
101582.896
101582.8651
101582.8311
101582.794
101582.7535
101582.7091
101582.6606
101582.6075
101582.5494
101582.4857
101582.4159
101582.3392
101582.2549
101582.1619
101582.0592
101581.9453
101581.8184
101581.6761
101581.515
101581.3262
101579.2851
101561.5281
101575.8038
101575.8029
101575.8008
101575.7975
101575.793
101575.7874
101575.7805
101575.7724
101575.763
101575.7523
101575.7401
101575.7265
101575.7112
101575.6942
101575.6754
101575.6547
101575.6318
101575.6067
101575.5791
101575.5489
101575.5157
101575.4794
101575.4395
101575.3959
101575.3481
101575.2958
101575.2383
101575.1754
101575.1062
101575.0303
101574.9467
101574.8546
101574.753
101574.6405
101574.5154
101574.3759
101574.2192
101574.0372
101571.881
101553.6332
101568.4803
101568.4794
101568.4774
101568.4742
101568.47
101568.4646
101568.4581
101568.4503
101568.4413
101568.4311
101568.4194
101568.4063
101568.3916
101568.3753
101568.3572
101568.3372
101568.3151
101568.2908
101568.2641
101568.2347
101568.2024
101568.167
101568.1281
101568.0854
101568.0386
101567.9872
101567.9307
101567.8688
101567.8007
101567.7259
101567.6435
101567.5529
101567.453
101567.3427
101567.2206
101567.0851
101566.9343
101566.7612
101564.4949
101545.5222
101561.1577
101561.1569
101561.1549
101561.152
101561.1479
101561.1428
101561.1366
101561.1293
101561.1207
101561.111
101561.0999
101561.0873
101561.0733
101561.0577
101561.0404
101561.0212
101561
101560.9767
101560.9509
101560.9225
101560.8913
101560.8569
101560.8192
101560.7776
101560.732
101560.6818
101560.6266
101560.5659
101560.4992
101560.4259
101560.3453
101560.2566
101560.1591
101560.0516
101559.9332
101559.8027
101559.6588
101559.495
101557.114
101537.6349
101553.8361
101553.8353
101553.8335
101553.8306
101553.8268
101553.822
101553.8162
101553.8093
101553.8012
101553.792
101553.7815
101553.7696
101553.7563
101553.7415
101553.725
101553.7068
101553.6865
101553.6642
101553.6395
101553.6123
101553.5822
101553.5491
101553.5126
101553.4724
101553.4282
101553.3794
101553.3258
101553.2667
101553.2018
101553.1303
101553.0518
101552.9656
101552.8708
101552.7669
101552.6528
101552.5279
101552.3915
101552.237
101549.7408
101529.5613
101546.5153
101546.5145
101546.5128
101546.5102
101546.5067
101546.5022
101546.4967
101546.4902
101546.4827
101546.474
101546.4641
101546.453
101546.4405
101546.4266
101546.411
101546.3937
101546.3746
101546.3534
101546.3299
101546.3039
101546.2752
101546.2435
101546.2085
101546.1699
101546.1272
101546.0802
101546.0283
101545.9711
101545.9082
101545.839
101545.7629
101545.6795
101545.588
101545.4879
101545.3787
101545.2598
101545.131
101544.9855
101542.3692
101521.6353
101539.1953
101539.1946
101539.193
101539.1906
101539.1873
101539.1831
101539.1781
101539.1721
101539.1651
101539.157
101539.1478
101539.1375
101539.1258
101539.1128
101539.0983
101539.0821
101539.0641
101539.0441
101539.0219
101538.9974
101538.9702
101538.9401
101538.9067
101538.8698
101538.829
101538.7838
101538.734
101538.679
101538.6184
101538.5517
101538.4784
101538.3981
101538.3103
101538.2145
101538.1103
101537.9976
101537.8763
101537.7392
101535.001
101513.6207
101531.8761
101531.8754
101531.874
101531.8717
101531.8687
101531.8649
101531.8603
101531.8548
101531.8483
101531.8409
101531.8325
101531.823
101531.8122
101531.8002
101531.7867
101531.7717
101531.755
101531.7363
101531.7156
101531.6926
101531.6671
101531.6387
101531.6072
101531.5722
101531.5334
101531.4904
101531.4429
101531.3903
101531.3323
101531.2683
101531.1981
101531.1212
101531.0373
101530.9459
101530.847
101530.7406
101530.6267
101530.4972
101527.6299
101505.606
101524.5575
101524.5569
101524.5556
101524.5536
101524.5509
101524.5474
101524.5432
101524.5382
101524.5324
101524.5257
101524.5181
101524.5094
101524.4996
101524.4886
101524.4763
101524.4625
101524.4472
101524.43
101524.4109
101524.3895
101524.3658
101524.3393
101524.3098
101524.277
101524.2404
101524.1998
101524.1547
101524.1048
101524.0496
101523.9888
101523.9219
101523.8486
101523.7687
101523.682
101523.5884
101523.4881
101523.3814
101523.2591
101520.2583
101497.5718
101517.2395
101517.239
101517.2378
101517.236
101517.2336
101517.2306
101517.2269
101517.2224
101517.2172
101517.2113
101517.2044
101517.1967
101517.1879
101517.178
101517.1669
101517.1545
101517.1406
101517.125
101517.1076
101517.088
101517.0662
101517.0418
101517.0145
101516.984
101516.9499
101516.9119
101516.8695
101516.8225
101516.7704
101516.7128
101516.6494
101516.5799
101516.5042
101516.4222
101516.334
101516.2398
101516.14
101516.0244
101512.8839
101489.5498
101509.9221
101509.9217
101509.9206
101509.9191
101509.917
101509.9143
101509.9111
101509.9072
101509.9027
101509.8975
101509.8915
101509.8847
101509.877
101509.8683
101509.8585
101509.8475
101509.8351
101509.8212
101509.8056
101509.788
101509.7683
101509.7461
101509.7212
101509.6932
101509.6617
101509.6265
101509.5871
101509.5432
101509.4943
101509.4402
101509.3805
101509.315
101509.2436
101509.1663
101509.0833
101508.995
101508.9019
101508.7927
101505.5106
101481.5116
101502.6052
101502.6048
101502.6039
101502.6026
101502.6008
101502.5986
101502.5959
101502.5926
101502.5888
101502.5844
101502.5793
101502.5735
101502.5669
101502.5594
101502.551
101502.5415
101502.5307
101502.5186
101502.5049
101502.4894
101502.4719
101502.4521
101502.4297
101502.4044
101502.3758
101502.3436
101502.3074
101502.2668
101502.2214
101502.1709
101502.115
101502.0535
101501.9865
101501.9139
101501.8361
101501.7535
101501.6668
101501.5634
101498.1361
101473.4808
101495.2886
101495.2883
101495.2876
101495.2865
101495.2851
101495.2833
101495.2811
101495.2784
101495.2753
101495.2717
101495.2676
101495.2628
101495.2574
101495.2512
101495.2442
101495.2363
101495.2272
101495.2169
101495.2053
101495.192
101495.1768
101495.1596
101495.1399
101495.1175
101495.092
101495.063
101495.0302
101494.9931
101494.9514
101494.9046
101494.8527
101494.7954
101494.7327
101494.6647
101494.5919
101494.5148
101494.4341
101494.336
101490.7694
101465.4386
101487.9724
101487.9721
101487.9716
101487.9708
101487.9697
101487.9683
101487.9666
101487.9646
101487.9623
101487.9595
101487.9563
101487.9526
101487.9484
101487.9436
101487.9381
101487.9317
101487.9245
101487.9162
101487.9066
101487.8957
101487.883
101487.8685
101487.8517
101487.8324
101487.8102
101487.7847
101487.7554
101487.722
101487.6842
101487.6414
101487.5936
101487.5404
101487.482
101487.4186
101487.3506
101487.2786
101487.2035
101487.1101
101483.4057
101457.3876
101480.6564
101480.6562
101480.6558
101480.6553
101480.6545
101480.6536
101480.6525
101480.6511
101480.6495
101480.6476
101480.6454
101480.6428
101480.6398
101480.6364
101480.6324
101480.6278
101480.6224
101480.6162
101480.6089
101480.6003
101480.5904
101480.5787
101480.565
101480.5489
101480.5302
101480.5083
101480.4829
101480.4535
101480.4197
101480.3811
101480.3374
101480.2885
101480.2344
101480.1753
101480.1118
101480.0446
101479.9747
101479.8853
101476.0468
101449.323
101473.3406
101473.3404
101473.3402
101473.3399
101473.3396
101473.3391
101473.3385
101473.3378
101473.3369
101473.3359
101473.3347
101473.3333
101473.3316
101473.3296
101473.3272
101473.3243
101473.3209
101473.3168
101473.3118
101473.3058
101473.2986
101473.2899
101473.2795
101473.2669
101473.2519
101473.2339
101473.2125
101473.1873
101473.1578
101473.1235
101473.0841
101473.0395
101472.9896
101472.9347
101472.8754
101472.8126
101472.7474
101472.6611
101468.6886
101441.2481
101466.0248
101466.0247
101466.0247
101466.0247
101466.0247
101466.0246
101466.0246
101466.0246
101466.0245
101466.0244
101466.0242
101466.0239
101466.0235
101466.023
101466.0222
101466.0211
101466.0197
101466.0178
101466.0152
101466.0119
101466.0076
101466.0021
101465.9951
101465.9862
101465.975
101465.9612
101465.9441
101465.9234
101465.8983
101465.8686
101465.8336
101465.7933
101465.7476
101465.6967
101465.6412
101465.5823
101465.5211
101465.4371
101461.3353
101433.1595
101458.709
101458.709
101458.7091
101458.7094
101458.7097
101458.7102
101458.7107
101458.7113
101458.712
101458.7128
101458.7137
101458.7146
101458.7155
101458.7164
101458.7173
101458.7181
101458.7187
101458.7191
101458.719
101458.7185
101458.7172
101458.715
101458.7116
101458.7066
101458.6995
101458.6901
101458.6776
101458.6616
101458.6413
101458.6163
101458.586
101458.55
101458.5083
101458.4612
101458.4092
101458.3535
101458.2958
101458.213
101453.9867
101425.0576
101451.3931
101451.3932
101451.3935
101451.394
101451.3947
101451.3956
101451.3967
101451.398
101451.3995
101451.4012
101451.4031
101451.4051
101451.4074
101451.4098
101451.4124
101451.415
101451.4178
101451.4204
101451.423
101451.4253
101451.4272
101451.4284
101451.4287
101451.4278
101451.4252
101451.4203
101451.4128
101451.4018
101451.3866
101451.3666
101451.3412
101451.3097
101451.272
101451.2283
101451.1792
101451.1262
101451.071
101450.9887
101446.6453
101416.9417
101444.077
101444.0772
101444.0777
101444.0784
101444.0795
101444.0809
101444.0825
101444.0845
101444.0867
101444.0893
101444.0922
101444.0955
101444.0991
101444.103
101444.1073
101444.1118
101444.1167
101444.1217
101444.1269
101444.1321
101444.1373
101444.1421
101444.1463
101444.1497
101444.1517
101444.1518
101444.1494
101444.1438
101444.1342
101444.1196
101444.0992
101444.0724
101444.0387
101443.9981
101443.9514
101443.9001
101443.8465
101443.7639
101439.3101
101408.8125
101436.7607
101436.7609
101436.7616
101436.7626
101436.764
101436.7658
101436.768
101436.7706
101436.7737
101436.7772
101436.7811
101436.7855
101436.7904
101436.7959
101436.8018
101436.8083
101436.8153
101436.8227
101436.8306
101436.8388
101436.8473
101436.8558
101436.8641
101436.8719
101436.8788
101436.8842
101436.8874
101436.8876
101436.8839
101436.8751
101436.8603
101436.8383
101436.8086
101436.771
101436.726
101436.6753
101436.6219
101436.5377
101431.9867
101400.6691
101429.444
101429.4443
101429.4451
101429.4464
101429.4482
101429.4504
101429.4531
101429.4564
101429.4602
101429.4646
101429.4695
101429.4751
101429.4813
101429.4882
101429.4959
101429.5042
101429.5134
101429.5232
101429.5338
101429.545
101429.5569
101429.5692
101429.5817
101429.5942
101429.6063
101429.6173
101429.6265
101429.633
101429.6357
101429.6333
101429.6245
101429.6078
101429.5823
101429.5473
101429.5032
101429.4519
101429.3966
101429.3093
101424.6673
101392.5107
101422.1269
101422.1272
101422.1282
101422.1297
101422.1318
101422.1345
101422.1378
101422.1417
101422.1462
101422.1514
101422.1574
101422.1641
101422.1716
101422.18
101422.1893
101422.1995
101422.2107
101422.223
101422.2363
101422.2506
101422.2659
101422.2821
101422.299
101422.3163
101422.3338
101422.3507
101422.3663
101422.3797
101422.3895
101422.3942
101422.392
101422.3812
101422.3601
101422.3277
101422.2837
101422.23
101422.1705
101422.0777
101417.3506
101384.3368
101414.8092
101414.8097
101414.8108
101414.8126
101414.815
101414.8181
101414.8218
101414.8263
101414.8316
101414.8376
101414.8445
101414.8523
101414.8611
101414.8709
101414.8818
101414.8939
101414.9072
101414.9219
101414.9378
101414.9552
101414.974
101414.9941
101415.0154
101415.0378
101415.0609
101415.0841
101415.1067
101415.1275
101415.1451
101415.1578
101415.1632
101415.1591
101415.143
101415.1131
101415.0685
101415.0105
101414.9432
101414.8411
101410.0273
101376.1473
101407.491
101407.4915
101407.4928
101407.4948
101407.4975
101407.501
101407.5052
101407.5103
101407.5162
101407.5231
101407.5309
101407.5397
101407.5497
101407.5609
101407.5734
101407.5873
101407.6026
101407.6196
101407.6382
101407.6586
101407.6808
101407.7049
101407.7307
101407.7583
101407.7872
101407.8171
101407.8471
101407.876
101407.9024
101407.924
101407.9382
101407.9419
101407.9319
101407.9049
101407.8589
101407.7944
101407.715
101407.5979
101402.6725
101367.9421
101400.1721
101400.1727
101400.1741
101400.1763
101400.1794
101400.1832
101400.1879
101400.1935
101400.2001
101400.2077
101400.2163
101400.2262
101400.2373
101400.2498
101400.2638
101400.2794
101400.2968
101400.3159
101400.3371
101400.3605
101400.3861
101400.414
101400.4444
101400.4772
101400.5122
101400.5491
101400.5869
101400.6248
101400.6608
101400.6927
101400.7172
101400.7305
101400.7278
101400.7046
101400.6571
101400.5837
101400.4869
101400.3457
101395.2598
101359.7234
101392.8525
101392.8532
101392.8547
101392.8571
101392.8604
101392.8646
101392.8697
101392.8758
101392.883
101392.8913
101392.9008
101392.9116
101392.9238
101392.9376
101392.953
101392.9702
101392.9894
101393.0107
101393.0344
101393.0605
101393.0894
101393.1212
101393.1561
101393.1942
101393.2354
101393.2794
101393.3257
101393.3732
101393.42
101393.4637
101393.5004
101393.5253
101393.5323
101393.5147
101393.4659
101393.3815
101393.2606
101393.0829
101387.7293
101351.4912
101385.5322
101385.5328
101385.5345
101385.5371
101385.5406
101385.5451
101385.5507
101385.5572
101385.565
101385.5739
101385.5841
101385.5958
101385.609
101385.6239
101385.6406
101385.6594
101385.6803
101385.7037
101385.7296
101385.7585
101385.7905
101385.8261
101385.8653
101385.9086
101385.956
101386.0074
101386.0625
101386.1204
101386.1792
101386.2363
101386.2876
101386.327
101386.3468
101386.3376
101386.2889
101386.1919
101386.0392
101385.8076
101379.9834
101343.2582
101378.2109
101378.2117
101378.2134
101378.2162
101378.2199
101378.2247
101378.2306
101378.2376
101378.2458
101378.2554
101378.2663
101378.2787
101378.2928
101378.3088
101378.3267
101378.3469
101378.3694
101378.3946
101378.4227
101378.4541
101378.4891
101378.528
101378.5715
101378.6198
101378.6733
101378.7322
101378.7964
101378.8653
101378.9373
101379.0098
101379.0782
101379.1359
101379.1729
101379.1765
101379.1312
101379.0209
101378.8278
101378.5147
101371.8965
101335.0302
101370.8888
101370.8896
101370.8915
101370.8943
101370.8983
101370.9034
101370.9095
101370.9169
101370.9256
101370.9356
101370.9471
101370.9603
101370.9752
101370.9921
101371.0111
101371.0325
101371.0565
101371.0834
101371.1134
101371.147
101371.1847
101371.2268
101371.2741
101371.3271
101371.3865
101371.4528
101371.5262
101371.6066
101371.6929
101371.7826
101371.8713
101371.9517
101372.0119
101372.0351
101371.9988
101371.8763
101371.6338
101371.2002
101363.3208
101326.8308
101363.5658
101363.5666
101363.5685
101363.5715
101363.5756
101363.5809
101363.5874
101363.5951
101363.6041
101363.6146
101363.6266
101363.6404
101363.656
101363.6737
101363.6936
101363.7161
101363.7414
101363.7697
101363.8015
101363.8371
101363.877
101363.9219
101363.9726
101364.0299
101364.0947
101364.168
101364.2505
101364.3426
101364.4439
101364.5526
101364.6649
101364.7731
101364.8642
101364.9166
101364.8986
101364.7684
101364.4758
101363.8294
101354.1421
101318.6205
101356.2419
101356.2426
101356.2446
101356.2477
101356.2519
101356.2574
101356.2641
101356.2721
101356.2815
101356.2923
101356.3047
101356.3189
101356.3351
101356.3535
101356.3742
101356.3976
101356.424
101356.4535
101356.4867
101356.524
101356.5658
101356.6131
101356.6666
101356.7275
101356.7972
101356.8768
101356.9678
101357.0713
101357.1879
101357.3169
101357.4555
101357.5974
101357.729
101357.8241
101357.8384
101357.7172
101357.401
101356.2404
101344.3082
101310.3158
101348.917
101348.9177
101348.9196
101348.9227
101348.9271
101348.9328
101348.9396
101348.9479
101348.9575
101348.9686
101348.9814
101348.9959
101349.0125
101349.0314
101349.0528
101349.077
101349.1042
101349.1348
101349.1691
101349.2077
101349.251
101349.3
101349.3557
101349.4196
101349.4932
101349.5783
101349.6769
101349.7911
101349.9228
101350.0725
101350.2394
101350.4199
101350.603
101350.7578
101350.8248
101350.7303
101350.36
101348.0526
101333.4958
101301.3332
101341.5893
101341.5897
101341.5914
101341.5946
101341.5991
101341.6048
101341.6118
101341.6202
101341.6299
101341.6412
101341.654
101341.6687
101341.6855
101341.7047
101341.7265
101341.751
101341.7788
101341.8101
101341.8451
101341.8844
101341.9285
101341.9784
101342.0352
101342.1006
101342.1766
101342.2654
101342.3696
101342.4922
101342.6361
101342.8026
101342.9915
101343.1988
101343.4076
101343.5456
101343.3099
101341.8493
101339.5266
101336.2079
101320.9472
101290.6451
101328.6756
101328.6194
101328.5239
101328.4646
101328.4298
101328.3751
101328.3204
101328.2652
101328.2072
101328.1415
101328.0677
101327.9901
101327.9153
101327.8475
101327.7837
101327.7219
101327.6813
101327.6411
101327.5994
101327.5562
101327.5079
101327.4676
101327.4251
101327.3838
101327.3436
101327.312
101327.2717
101327.1426
101326.819
101326.1056
101324.8008
101322.7561
101319.909
101315.8648
101306.9579
101288.7543
101279.0179
101294.9516
101306.5051
101273.3782
100959.859
100959.8797
100960.022
100960.2045
100960.3586
100960.6033
100960.8799
100961.2014
100961.5714
100961.9931
100962.4706
100963.008
100963.6106
100964.2845
100965.0354
100965.873
100966.7902
100967.8182
100968.9607
100970.2321
100971.6477
100973.213
100974.9805
100976.9791
100979.2917
100981.9748
100985.0868
100988.8244
100993.3688
100998.9154
101005.6461
101013.8427
101023.7216
101035.0012
101045.5476
101053.147
101070.0008
101146.4675
101236.1884
101237.1101
100896.415
100896.4177
100896.4259
100896.4315
100896.4364
100896.4407
100896.4446
100896.4487
100896.4529
100896.4576
100896.4629
100896.469
100896.476
100896.484
100896.4935
100896.5046
100896.5169
100896.5319
100896.5501
100896.5715
100896.597
100896.6285
100896.6701
100896.726
100896.8058
100896.9392
100897.1649
100897.5469
100898.2141
100899.3135
100900.8533
100902.6606
100904.5693
100906.5444
100908.2858
100908.813
100908.4466
100934.4329
101009.6581
101090.0684
100896.3067
100896.3064
100896.3064
100896.3065
100896.3065
100896.3065
100896.3066
100896.3066