/*--------------------------------*- C++ -*----------------------------------*\
| =========                 |                                                 |
| \\      /  F ield         | OpenFOAM: The Open Source CFD Toolbox           |
|  \\    /   O peration     | Version:  v1912                                 |
|   \\  /    A nd           | Website:  www.openfoam.com                      |
|    \\/     M anipulation  |                                                 |
\*---------------------------------------------------------------------------*/
FoamFile
{
    version     2.0;
    format      ascii;
    class       surfaceScalarField;
    location    "0.3";
    object      phi;
}
// * * * * * * * * * * * * * * * * * * * * * * * * * * * * * * * * * * * * * //

dimensions      [0 3 -1 0 0 0 0];
oriented        oriented;


internalField   nonuniform List<scalar> 
9440
(
9.06704952e-11
-9.067049522e-11
3.637927763e-10
-2.731222482e-10
8.21196111e-10
-4.574032558e-10
1.466084662e-09
-6.44888395e-10
2.302979342e-09
-8.368943964e-10
3.337740065e-09
-1.034760251e-09
4.577590472e-09
-1.239849681e-09
6.03114958e-09
-1.453558071e-09
7.708470609e-09
-1.677319633e-09
9.621087211e-09
-1.912614819e-09
1.178206753e-08
-2.160978143e-09
1.420607675e-08
-2.424006673e-09
1.690944899e-08
-2.70336936e-09
1.991026949e-08
-3.000817342e-09
2.322846838e-08
-3.318195536e-09
2.688592772e-08
-3.65745586e-09
3.090660333e-08
-4.020672081e-09
3.531666374e-08
-4.410056875e-09
4.014464825e-08
-4.827981027e-09
4.542164689e-08
-5.27699523e-09
5.1181505e-08
-5.759854766e-09
5.74610548e-08
-6.279546492e-09
6.43003769e-08
-6.839318805e-09
7.174309518e-08
-7.442714924e-09
7.983670679e-08
-8.093608139e-09
8.863295335e-08
-8.796242925e-09
9.818824266e-08
-9.555285482e-09
1.085641442e-07
-1.037589748e-08
1.198280177e-07
-1.126386921e-08
1.320539209e-07
-1.222589865e-08
1.453241588e-07
-1.327023334e-08
1.597323693e-07
-1.440820567e-08
1.753903516e-07
-1.565797753e-08
1.924440565e-07
-1.705370014e-08
2.111113054e-07
-1.866724421e-08
2.31757161e-07
-2.064585108e-08
2.554896967e-07
-2.373253134e-08
2.793568378e-07
-2.386713674e-08
4.219749344e-07
-1.426261183e-07
4.330455811e-07
9.179299589e-11
-1.82463451e-10
3.676922689e-10
-5.490213867e-10
8.297283688e-10
-9.194390744e-10
1.481162624e-09
-1.296322142e-09
2.32659796e-09
-1.682328895e-09
3.371997325e-09
-2.080158343e-09
4.624710756e-09
-2.492561308e-09
6.093508874e-09
-2.922353775e-09
7.788623522e-09
-3.37243121e-09
9.721796008e-09
-3.845783571e-09
1.190633354e-08
-4.345511307e-09
1.435717459e-08
-4.87484279e-09
1.709096413e-08
-5.437153493e-09
2.012613987e-08
-6.035987328e-09
2.348303099e-08
-6.675080683e-09
2.718397126e-08
-7.358390046e-09
3.125342839e-08
-8.090123117e-09
3.571815219e-08
-8.874774643e-09
4.060734443e-08
-9.717167316e-09
4.595285367e-08
-1.062249862e-08
5.178939862e-08
-1.159639392e-08
5.815482427e-08
-1.26449663e-08
6.509039512e-08
-1.377488372e-08
7.264113072e-08
-1.499344438e-08
8.08561901e-08
-1.630866109e-08
8.978931292e-08
-1.772935895e-08
9.949933102e-08
-1.92652964e-08
1.100507762e-07
-2.092733515e-08
1.21514636e-07
-2.272772109e-08
1.339693722e-07
-2.468062662e-08
1.475024572e-07
-2.680331004e-08
1.622130028e-07
-2.91187429e-08
1.782167709e-07
-3.166173721e-08
1.956566699e-07
-3.449359098e-08
2.147289621e-07
-3.773952844e-08
2.357575348e-07
-4.167441594e-08
2.594836484e-07
-4.745863745e-08
2.80508404e-07
-4.489188509e-08
3.445868191e-07
-2.067271873e-07
7.900645165e-07
9.140839134e-11
-2.738718117e-10
3.661732539e-10
-8.237861341e-10
8.262579445e-10
-1.379523522e-09
1.474930729e-09
-1.944994486e-09
2.316785809e-09
-2.524183251e-09
3.357770357e-09
-3.121141792e-09
4.605212735e-09
-3.740002128e-09
6.067856483e-09
-4.38499544e-09
7.755900944e-09
-5.060473023e-09
9.681049232e-09
-5.770928635e-09
1.185656422e-08
-6.521022526e-09
1.429733326e-08
-7.315607575e-09
1.701994258e-08
-8.159758148e-09
2.004276261e-08
-9.058802398e-09
2.338604563e-08
-1.001835854e-08
2.707203725e-08
-1.104437642e-08
3.112510423e-08
-1.214318483e-08
3.557188086e-08
-1.332154608e-08
4.044143691e-08
-1.458671825e-08
4.576547017e-08
-1.594652685e-08
5.157852777e-08
-1.740944653e-08
5.791825993e-08
-1.898469346e-08
6.482571057e-08
-2.068232925e-08
7.234564977e-08
-2.25133783e-08
8.052695268e-08
-2.448995846e-08
8.942302919e-08
-2.662542961e-08
9.909230965e-08
-2.893457068e-08
1.0959879e-07
-3.143380896e-08
1.21012637e-07
-3.414156124e-08
1.334108445e-07
-3.707882711e-08
1.46877897e-07
-4.027035529e-08
1.615062745e-07
-4.374711307e-08
1.773962376e-07
-4.755169309e-08
1.946529354e-07
-5.175028171e-08
2.133726295e-07
-5.645921555e-08
2.335843374e-07
-6.188611704e-08
2.550847653e-07
-6.895905868e-08
2.757989343e-07
-6.560604895e-08
2.989976009e-07
-2.299645237e-07
1.102905288e-06
9.081553076e-11
-3.646873105e-10
3.638137338e-10
-1.096784214e-09
8.209245223e-10
-1.836634054e-09
1.46539937e-09
-2.589468877e-09
2.301812334e-09
-3.360595478e-09
3.336083007e-09
-4.155411361e-09
4.575504373e-09
-4.979421942e-09
6.02877659e-09
-5.838265598e-09
7.706047297e-09
-6.737741125e-09
9.618959038e-09
-7.683837222e-09
1.178070446e-08
-8.682764268e-09
1.420608998e-08
-9.740988953e-09
1.691160891e-08
-1.086527255e-08
1.99155251e-08
-1.206271378e-08
2.323796862e-08
-1.334079707e-08
2.690104492e-08
-1.470744765e-08
3.092895993e-08
-1.617109477e-08
3.534816311e-08
-1.774074425e-08
4.01875118e-08
-1.9426062e-08
4.547845975e-08
-2.123746994e-08
5.125527366e-08
-2.318625562e-08
5.755528172e-08
-2.528469668e-08
6.44191581e-08
-2.75462007e-08
7.189124675e-08
-2.998546182e-08
8.001992783e-08
-3.261863417e-08
8.885802562e-08
-3.546352173e-08
9.846325038e-08
-3.853978942e-08
1.08898652e-07
-4.18692042e-08
1.202330265e-07
-4.547592907e-08
1.325411334e-07
-4.938692717e-08
1.4590338e-07
-5.363259482e-08
1.604041342e-07
-5.824786013e-08
1.7612659e-07
-6.327414183e-08
1.931389127e-07
-6.876259744e-08
2.114578586e-07
-7.47781547e-08
2.309555355e-07
-8.138378728e-08
2.510558577e-07
-8.905937386e-08
2.724304375e-07
-8.698062374e-08
2.836365857e-07
-2.412225633e-07
1.401401837e-06
9.002652493e-11
-4.547137988e-10
3.606542326e-10
-1.367411781e-09
8.137913386e-10
-2.289770875e-09
1.452664803e-09
-3.228341848e-09
2.281818841e-09
-4.189748734e-09
3.30713467e-09
-5.180726034e-09
4.53585719e-09
-6.208142862e-09
5.976628137e-09
-7.27903444e-09
7.63952573e-09
-8.400636077e-09
9.536111259e-09
-9.58041957e-09
1.167948317e-08
-1.082613249e-08
1.408433933e-08
-1.214584097e-08
1.676704827e-08
-1.354797698e-08
1.974573062e-08
-1.504139135e-08
2.304035201e-08
-1.663541351e-08
2.667282898e-08
-1.83399196e-08
3.066715003e-08
-2.016541081e-08
3.504951424e-08
-2.212310351e-08
3.984849011e-08
-2.4225033e-08
4.509519796e-08
-2.6484173e-08
5.082351948e-08
-2.89145724e-08
5.707033814e-08
-3.153151056e-08
6.387581393e-08
-3.435167159e-08
7.128369494e-08
-3.739333775e-08
7.934166656e-08
-4.067660044e-08
8.810173306e-08
-4.422358258e-08
9.762061387e-08
-4.805866424e-08
1.079601121e-07
-5.220869608e-08
1.191873566e-07
-5.670316686e-08
1.313746956e-07
-6.157425928e-08
1.445987494e-07
-6.68566416e-08
1.589375314e-07
-7.2586635e-08
1.74463256e-07
-7.879985931e-08
1.912258275e-07
-8.552516184e-08
2.092175276e-07
-9.276984804e-08
2.283105836e-07
-1.004768368e-07
2.479707897e-07
-1.087195726e-07
2.705230556e-07
-1.095328845e-07
2.768033623e-07
-2.475744606e-07
1.693685847e-06
8.904020348e-11
-5.43753959e-10
3.567012536e-10
-1.635072668e-09
8.048712688e-10
-2.737940567e-09
1.436747815e-09
-3.860217849e-09
2.256836811e-09
-5.009836887e-09
3.270970587e-09
-6.194858592e-09
4.486333389e-09
-7.423503997e-09
5.911493629e-09
-8.70419251e-09
7.55644263e-09
-1.004558238e-08
9.432640117e-09
-1.145661383e-08
1.155306686e-08
-1.294655551e-08
1.393228513e-08
-1.452505508e-08
1.658650766e-08
-1.620219501e-08
1.95336762e-08
-1.798855512e-08
2.279355087e-08
-1.989528328e-08
2.638781191e-08
-2.193417566e-08
3.034017561e-08
-2.411776955e-08
3.467652692e-08
-2.645944994e-08
3.942507138e-08
-2.897357265e-08
4.461650931e-08
-3.167560619e-08
5.028423615e-08
-3.458229452e-08
5.646457222e-08
-3.771184189e-08
6.319702529e-08
-4.10841198e-08
7.052458766e-08
-4.472089505e-08
7.849406745e-08
-4.864607489e-08
8.715644693e-08
-5.288595639e-08
9.656724664e-08
-5.746945792e-08
1.067868477e-07
-6.242829074e-08
1.178806684e-07
-6.779698084e-08
1.299189778e-07
-7.361256179e-08
1.429759039e-07
-7.991356052e-08
1.571267465e-07
-8.673747047e-08
1.724418831e-07
-9.411498876e-08
1.889741443e-07
-1.020574159e-07
2.067346057e-07
-1.105303025e-07
2.256612369e-07
-1.194034617e-07
2.453858186e-07
-1.284441467e-07
2.691232295e-07
-1.332702899e-07
2.719548171e-07
-2.504863175e-07
1.981488937e-06
8.785784355e-11
-6.31611751e-10
3.519625067e-10
-1.899177141e-09
7.941807316e-10
-3.180158425e-09
1.41767614e-09
-4.483712654e-09
2.226908648e-09
-5.819068484e-09
3.22765161e-09
-7.19560026e-09
4.427016331e-09
-8.622866975e-09
5.833483311e-09
-1.011065725e-08
7.456939911e-09
-1.166903622e-08
9.308724493e-09
-1.330839514e-08
1.140167736e-08
-1.503950463e-08
1.375019907e-08
-1.687357262e-08
1.637031663e-08
-1.882230806e-08
1.927975859e-08
-2.089799235e-08
2.249804025e-08
-2.311356006e-08
2.604656021e-08
-2.548269069e-08
2.994871016e-08
-2.80199146e-08
3.423000019e-08
-3.074073514e-08
3.891820221e-08
-3.366176992e-08
4.404351427e-08
-3.680091357e-08
4.963874948e-08
-4.017752506e-08
5.573955335e-08
-4.381264105e-08
6.238465231e-08
-4.772921393e-08
6.961613572e-08
-5.195237341e-08
7.747977149e-08
-5.650970532e-08
8.602534921e-08
-6.143152843e-08
9.530703497e-08
-6.675113764e-08
1.053837e-07
-7.250494941e-08
1.163191503e-07
-7.873242438e-08
1.281821169e-07
-8.547552137e-08
1.410457596e-07
-9.277719597e-08
1.549862717e-07
-1.006779753e-07
1.700799677e-07
-1.092086776e-07
1.863979804e-07
-1.183754213e-07
2.039970133e-07
-1.281293283e-07
2.229087647e-07
-1.383152067e-07
2.428824856e-07
-1.484178601e-07
2.668008548e-07
-1.571886531e-07
2.671125872e-07
-2.50900156e-07
2.264688797e-06
8.64813448e-11
-7.180930343e-10
3.464464311e-10
-2.159142007e-09
7.817384125e-10
-3.615449991e-09
1.395482336e-09
-5.097455913e-09
2.19208479e-09
-6.615669953e-09
3.177250459e-09
-8.180764556e-09
4.358005767e-09
-9.803620463e-09
5.74272912e-09
-1.149537829e-08
7.341187336e-09
-1.326749161e-08
9.164578284e-09
-1.513178276e-08
1.122557987e-08
-1.710050242e-08
1.353840583e-08
-1.91863944e-08
1.61188689e-08
-2.140276663e-08
1.898445186e-08
-2.37635706e-08
2.215438788e-08
-2.628349125e-08
2.564975114e-08
-2.897804908e-08
2.949355943e-08
-3.186371805e-08
3.371089092e-08
-3.495806187e-08
3.832901757e-08
-3.827989189e-08
4.337755812e-08
-4.18494495e-08
4.888865382e-08
-4.568861617e-08
5.489717135e-08
-4.982115391e-08
6.144093649e-08
-5.427297426e-08
6.856100109e-08
-5.9072433e-08
7.630194609e-08
-6.425064499e-08
8.471221957e-08
-6.984179622e-08
9.384450366e-08
-7.588341565e-08
1.037560968e-07
-8.241653606e-08
1.145092889e-07
-8.948560977e-08
1.261717038e-07
-9.713792914e-08
1.388166065e-07
-1.054220914e-07
1.525232916e-07
-1.143846531e-07
1.673780339e-07
-1.240634125e-07
1.834769653e-07
-1.344743455e-07
2.009334168e-07
-1.455857723e-07
2.198878508e-07
-1.572696343e-07
2.404096619e-07
-1.689396637e-07
2.659966489e-07
-1.827756339e-07
2.618436824e-07
-2.46883015e-07
2.542884449e-06
8.491301374e-11
-8.030059761e-10
3.401625196e-10
-2.41439126e-09
7.675655613e-10
-4.042852566e-09
1.370203902e-09
-5.700093521e-09
2.152423725e-09
-7.397888713e-09
3.119851675e-09
-9.148191051e-09
4.279417751e-09
-1.096318464e-08
5.639384527e-09
-1.285534268e-08
7.209382289e-09
-1.483748649e-08
9.000450016e-09
-1.692284712e-08
1.102508226e-08
-1.912513086e-08
1.329728218e-08
-2.145859013e-08
1.583262118e-08
-2.393810115e-08
1.864830566e-08
-2.65792504e-08
2.176325182e-08
-2.939843262e-08
2.519816962e-08
-3.241296208e-08
2.897565729e-08
-3.564120096e-08
3.31203084e-08
-3.910270829e-08
3.765883391e-08
-4.28184128e-08
4.262020212e-08
-4.681081317e-08
4.803580006e-08
-5.110420957e-08
5.393962029e-08
-5.572496954e-08
6.036847818e-08
-6.070182738e-08
6.736226456e-08
-6.606621436e-08
7.496423819e-08
-7.18526133e-08
8.322136545e-08
-7.809891779e-08
9.218471433e-08
-8.484675843e-08
1.019099161e-07
-9.214173135e-08
1.12457728e-07
-1.000334149e-07
1.238947801e-07
-1.085749741e-07
1.362947152e-07
-1.178220192e-07
1.497402367e-07
-1.278301672e-07
1.643272937e-07
-1.38650462e-07
1.801743104e-07
-1.50321355e-07
1.974437596e-07
-1.62855214e-07
2.16396713e-07
-1.762225811e-07
2.374470642e-07
-1.899900075e-07
2.640313974e-07
-2.093599607e-07
2.551679974e-07
-2.381740171e-07
2.814660653e-06
8.31554847e-11
-8.861613774e-10
3.331214022e-10
-2.664356892e-09
7.5168607e-10
-4.461416715e-09
1.341883244e-09
-6.290289895e-09
2.107991801e-09
-8.163996131e-09
3.055551294e-09
-1.009574901e-08
4.191384134e-09
-1.209901549e-08
5.523623828e-09
-1.418757992e-08
7.06174878e-09
-1.637560851e-08
8.816621534e-09
-1.867771648e-08
1.080053341e-08
-2.110903891e-08
1.302725456e-08
-2.36853071e-08
1.551208988e-08
-2.642293204e-08
1.827194104e-08
-2.933909694e-08
2.132537514e-08
-3.245186201e-08
2.469270154e-08
-3.578028375e-08
2.839605731e-08
-3.934455206e-08
3.245950367e-08
-4.316615006e-08
3.690913538e-08
-4.726803999e-08
4.177320625e-08
-5.167487957e-08
4.708227438e-08
-5.641327323e-08
5.286937143e-08
-6.151206204e-08
5.917020235e-08
-6.700265358e-08
6.602338226e-08
-7.29193893e-08
7.347071915e-08
-7.929994489e-08
8.155755663e-08
-8.618574959e-08
9.03331973e-08
-9.3622393e-08
9.985144557e-08
-1.016599731e-07
1.101713448e-07
-1.103533072e-07
1.213582694e-07
-1.197618916e-07
1.334857073e-07
-1.299494497e-07
1.46638436e-07
-1.409828884e-07
1.609185591e-07
-1.529305777e-07
1.764574866e-07
-1.658602753e-07
1.934410444e-07
-1.798387642e-07
2.121714136e-07
-1.949529435e-07
2.332641933e-07
-2.110827798e-07
2.586794044e-07
-2.347751651e-07
2.463893072e-07
-2.260864851e-07
3.07789557e-06
8.121169503e-11
-9.673729775e-10
3.253348739e-10
-2.908479751e-09
7.341264913e-10
-4.87020776e-09
1.310567609e-09
-6.866730146e-09
2.058863056e-09
-8.912290363e-09
2.984456523e-09
-1.102134086e-08
4.094052069e-09
-1.320860899e-08
5.395641418e-09
-1.548916675e-08
6.898536436e-09
-1.787850054e-08
8.613406581e-09
-2.039258319e-08
1.055232121e-08
-2.304794971e-08
1.27287966e-08
-2.586177834e-08
1.515784789e-08
-2.885197893e-08
1.785604604e-08
-3.203729052e-08
2.084158013e-08
-3.543739147e-08
2.41343262e-08
-3.90730252e-08
2.77559232e-08
-4.296614449e-08
3.172985761e-08
-4.714007999e-08
3.608155923e-08
-5.16197372e-08
4.083851077e-08
-5.643182673e-08
4.603037511e-08
-6.160513319e-08
5.168914532e-08
-6.717082778e-08
5.78493247e-08
-7.316282829e-08
6.454814583e-08
-7.961820549e-08
7.182584081e-08
-8.657763458e-08
7.972598257e-08
-9.408588568e-08
8.829592929e-08
-1.021923336e-07
9.758742601e-08
-1.109514633e-07
1.076574632e-07
-1.204233376e-07
1.185695843e-07
-1.306740055e-07
1.303960079e-07
-1.417758659e-07
1.432212607e-07
-1.538081338e-07
1.57148612e-07
-1.668579213e-07
1.723116048e-07
-1.810232608e-07
1.888941434e-07
-1.964212952e-07
2.071561188e-07
-2.132149121e-07
2.274578686e-07
-2.313845222e-07
2.519266392e-07
-2.592439289e-07
2.365518782e-07
-2.109732356e-07
3.331506152e-06
7.908487971e-11
-1.046457751e-09
3.168158992e-10
-3.146210418e-09
7.149160259e-10
-5.268307264e-09
1.276309003e-09
-7.428122192e-09
2.005119027e-09
-9.641099101e-09
2.906685421e-09
-1.192290557e-08
3.98758352e-09
-1.428950496e-08
5.255651059e-09
-1.675723171e-08
6.720019407e-09
-1.934286586e-08
8.39114924e-09
-2.206370957e-08
1.028087049e-08
-2.493766714e-08
1.240242629e-08
-2.798333001e-08
1.477052076e-08
-3.122006905e-08
1.740137084e-08
-3.466813612e-08
2.031276192e-08
-3.834877801e-08
2.352410817e-08
-4.228436693e-08
2.705651832e-08
-4.649855018e-08
3.093286777e-08
-5.101642506e-08
3.517787945e-08
-5.586474459e-08
3.98182162e-08
-6.10721592e-08
4.488258836e-08
-6.666950105e-08
5.040188231e-08
-7.269011731e-08
5.640931776e-08
-7.917025915e-08
6.294064519e-08
-8.614952803e-08
7.003439835e-08
-9.367138249e-08
7.773222514e-08
-1.017837068e-07
8.607933518e-08
-1.105394376e-07
9.512512457e-08
-1.199972462e-07
1.049240821e-07
-1.302222883e-07
1.155371571e-07
-1.412870733e-07
1.2703391e-07
-1.532726114e-07
1.394959959e-07
-1.662702121e-07
1.530228958e-07
-1.803848136e-07
1.677412723e-07
-1.957416301e-07
1.838194648e-07
-2.1249948e-07
2.014846396e-07
-2.3088008e-07
2.210548383e-07
-2.509547136e-07
2.439870962e-07
-2.821761799e-07
2.256102887e-07
-1.929236264e-07
3.574347918e-06
7.677856388e-11
-1.123236197e-09
3.075785999e-10
-3.37701007e-09
6.940864892e-10
-5.654814482e-09
1.239164095e-09
-7.973198807e-09
1.946848554e-09
-1.034878221e-08
2.822366553e-09
-1.279842181e-08
3.872154704e-09
-1.533929094e-08
5.103885076e-09
-1.798895946e-08
6.526495263e-09
-2.0765473e-08
8.150222421e-09
-2.368743328e-08
9.986640851e-09
-2.677408177e-08
1.20487029e-08
-3.004538799e-08
1.43507827e-08
-3.352214457e-08
1.690872254e-08
-3.722607158e-08
1.973988187e-08
-4.117993291e-08
2.286318869e-08
-4.540766935e-08
2.629919473e-08
-4.993455188e-08
3.007013429e-08
-5.478736036e-08
3.419998913e-08
-5.999459523e-08
3.871456199e-08
-6.55867279e-08
4.364156278e-08
-7.159649764e-08
4.901071309e-08
-7.805926328e-08
5.485387712e-08
-8.501341864e-08
6.120523233e-08
-9.25008784e-08
6.810149641e-08
-1.005676414e-07
7.558223546e-08
-1.092644402e-07
8.369029268e-08
-1.186474888e-07
9.247239636e-08
-1.287793435e-07
1.019800383e-07
-1.397299235e-07
1.122707636e-07
-1.515777914e-07
1.234100948e-07
-1.644119353e-07
1.354744301e-07
-1.7833454e-07
1.485553986e-07
-1.934657743e-07
1.627662959e-07
-2.099525202e-07
1.782511134e-07
-2.279842899e-07
1.951938297e-07
-2.478227892e-07
2.138573211e-07
-2.696181977e-07
2.350954179e-07
-3.034142697e-07
2.141651552e-07
-1.723927976e-07
3.805868736e-06
7.429656285e-11
-1.197532631e-09
2.976382482e-10
-3.600351343e-09
6.716722738e-10
-6.028847794e-09
1.199194136e-09
-8.500719626e-09
1.884147597e-09
-1.103373426e-08
2.731638682e-09
-1.364591109e-08
3.747955597e-09
-1.635560563e-08
4.940593572e-09
-1.918159479e-08
6.318283847e-09
-2.214316021e-08
7.891026208e-09
-2.526017221e-08
9.670124403e-09
-2.855317621e-08
1.166822408e-08
-3.204348366e-08
1.389935247e-08
-3.575326877e-08
1.637895954e-08
-3.970567436e-08
1.912396008e-08
-4.392492915e-08
2.215277627e-08
-4.843648126e-08
2.548538145e-08
-5.326715286e-08
2.914334546e-08
-5.844532024e-08
3.314988244e-08
-6.400112814e-08
3.75299042e-08
-6.996674562e-08
4.231008277e-08
-7.637667209e-08
4.751892775e-08
-8.326810402e-08
5.318688724e-08
-9.068137366e-08
5.934648533e-08
-9.866047172e-08
6.603251433e-08
-1.072536652e-07
7.328230682e-08
-1.165142272e-07
8.113612291e-08
-1.265012989e-07
8.963770491e-08
-1.37280919e-07
9.883506724e-08
-1.48927279e-07
1.087816091e-07
-1.615243261e-07
1.195376549e-07
-1.751679738e-07
1.311725286e-07
-1.899694063e-07
1.437672175e-07
-2.060604556e-07
1.574175775e-07
-2.23602873e-07
1.722379156e-07
-2.428046206e-07
1.883636216e-07
-2.639484882e-07
2.059974738e-07
-2.872520428e-07
2.255217765e-07
-3.229385655e-07
2.026376493e-07
-1.499855679e-07
4.025948757e-06
7.16429767e-11
-1.269175469e-09
2.870112468e-10
-3.815719174e-09
6.477103133e-10
-6.389546108e-09
1.156464863e-09
-9.009473086e-09
1.817119096e-09
-1.169438704e-08
2.634650505e-09
-1.446344065e-08
3.615189525e-09
-1.733614239e-08
4.766043795e-09
-2.03324464e-08
6.095726254e-09
-2.347283962e-08
7.613986349e-09
-2.67784289e-08
9.331843601e-09
-3.027102976e-08
1.126162263e-08
-3.397325876e-08
1.341698918e-08
-3.790863123e-08
1.5812986e-08
-4.2101667e-08
1.846606819e-08
-4.657800717e-08
2.139413699e-08
-5.136454593e-08
2.461657194e-08
-5.648958374e-08
2.815426203e-08
-6.198300633e-08
3.202963577e-08
-6.787649794e-08
3.626669293e-08
-7.420379884e-08
4.089104127e-08
-8.100101643e-08
4.59299439e-08
-8.830700248e-08
5.141238538e-08
-9.616381074e-08
5.736916961e-08
-1.046172512e-07
6.383306764e-08
-1.137175582e-07
7.083903946e-08
-1.235201934e-07
7.842456083e-08
-1.340868143e-07
8.663009614e-08
-1.45486448e-07
9.549976147e-08
-1.577969376e-07
1.05082212e-07
-1.711067695e-07
1.154317482e-07
-1.855175027e-07
1.266095319e-07
-2.011471828e-07
1.386845776e-07
-2.181354937e-07
1.517338037e-07
-2.366520919e-07
1.658400642e-07
-2.569108737e-07
1.810868842e-07
-2.791953012e-07
1.976020993e-07
-3.037672509e-07
2.153413848e-07
-3.406778441e-07
1.910798323e-07
-1.262830742e-07
4.234542154e-06
6.882218747e-11
-1.33799751e-09
2.757151217e-10
-4.022611648e-09
6.22240042e-10
-6.736070244e-09
1.111046419e-09
-9.498278337e-09
1.745872783e-09
-1.232921191e-08
2.531560378e-09
-1.524912637e-08
3.474072714e-09
-1.827865245e-08
4.580519461e-09
-2.143889048e-08
5.859183882e-09
-2.475150101e-08
7.319552954e-09
-2.823879461e-08
8.972349327e-09
-3.19238225e-08
1.082956392e-08
-3.583046951e-08
1.290448844e-08
-3.998355178e-08
1.52117464e-08
-4.440892093e-08
1.776732195e-08
-4.913357868e-08
2.058858498e-08
-5.418580497e-08
2.369431172e-08
-5.959530656e-08
2.710470126e-08
-6.539339201e-08
3.084138739e-08
-7.161318024e-08
3.492744728e-08
-7.828985489e-08
3.938741055e-08
-8.546097579e-08
4.424727301e-08
-9.316686086e-08
4.953452364e-08
-1.01451057e-07
5.52781961e-08
-1.103609191e-07
6.150896255e-08
-1.199483196e-07
6.82592922e-08
-1.302705176e-07
7.556370192e-08
-1.413912181e-07
8.345912883e-08
-1.533818686e-07
9.198545104e-08
-1.663232532e-07
1.011861506e-07
-1.803074622e-07
1.111090324e-07
-1.954403773e-07
1.218067338e-07
-2.118448771e-07
1.333363841e-07
-2.296651366e-07
1.457570936e-07
-2.490727943e-07
1.591229393e-07
-2.702767122e-07
1.73467834e-07
-2.93540189e-07
1.88826924e-07
-3.191263341e-07
2.046958822e-07
-3.565467955e-07
1.794452961e-07
-1.016782329e-07
4.431582313e-06
6.583885739e-11
-1.403836213e-09
2.637685096e-10
-4.220540822e-09
5.953033668e-10
-7.067604292e-09
1.063013311e-09
-9.965987127e-09
1.670525086e-09
-1.293672216e-08
2.422536096e-09
-1.600113548e-08
3.324833928e-09
-1.9180948e-08
4.384320188e-09
-2.249837409e-08
5.609037535e-09
-2.597621537e-08
7.008199058e-09
-2.963795283e-08
8.592218906e-09
-3.35078388e-08
1.037274305e-08
-3.761098993e-08
1.236267864e-08
-4.197348352e-08
1.457622069e-08
-4.66224591e-08
1.702887466e-08
-5.158622875e-08
1.973747332e-08
-5.68943998e-08
2.272018626e-08
-6.257801572e-08
2.599652123e-08
-6.866972327e-08
2.958731754e-08
-7.520397285e-08
3.351473071e-08
-8.221726434e-08
3.780221152e-08
-8.974845279e-08
4.247448355e-08
-9.783912891e-08
4.755752599e-08
-1.065340952e-07
5.307857251e-08
-1.15881961e-07
5.906614185e-08
-1.25935884e-07
6.555012154e-08
-1.36754492e-07
7.256192919e-08
-1.4840302e-07
8.01347749e-08
-1.609547081e-07
8.830404101e-08
-1.744925127e-07
9.710775643e-08
-1.891111708e-07
1.065870458e-07
-2.049196597e-07
1.167862228e-07
-2.220440471e-07
1.277517345e-07
-2.40630641e-07
1.39528236e-07
-2.608492888e-07
1.52148308e-07
-2.828967772e-07
1.656088652e-07
-3.070007394e-07
1.798613972e-07
-3.333788594e-07
1.939459505e-07
-3.706313422e-07
1.679314675e-07
-7.640027088e-08
4.617195242e-06
6.269792801e-11
-1.466533981e-09
2.5119115e-10
-4.409033553e-09
5.669446698e-10
-7.383356984e-09
1.01244435e-09
-1.041148563e-08
1.591199055e-09
-1.351547533e-08
2.307754748e-09
-1.671768927e-08
3.167714206e-09
-2.00409052e-08
4.177761043e-09
-2.350841831e-08
5.345686709e-09
-2.714413809e-08
6.680419512e-09
-3.097268242e-08
8.192054422e-09
-3.501947027e-08
9.891882407e-09
-3.93108143e-08
1.179241737e-08
-4.387401479e-08
1.390741909e-08
-4.873745707e-08
1.625191016e-08
-5.393071609e-08
1.884218516e-08
-5.94846711e-08
2.169580951e-08
-6.543163643e-08
2.483160612e-08
-7.18055163e-08
2.826962967e-08
-7.864199283e-08
3.203112689e-08
-8.597875792e-08
3.613848386e-08
-9.385580602e-08
4.061516445e-08
-1.023158056e-07
4.54856444e-08
-1.11404571e-07
5.077535142e-08
-1.211716635e-07
5.651062414e-08
-1.316711518e-07
6.271871017e-08
-1.429625727e-07
6.942782653e-08
-1.551121306e-07
7.666730582e-08
-1.681941813e-07
8.446784326e-08
-1.822930437e-07
9.286183244e-08
-1.975051534e-07
1.018836899e-07
-2.139415102e-07
1.115698822e-07
-2.317302325e-07
1.219579311e-07
-2.510186828e-07
1.330826806e-07
-2.719740316e-07
1.449658784e-07
-2.947799681e-07
1.575898748e-07
-3.196247292e-07
1.708666607e-07
-3.466556387e-07
1.835275143e-07
-3.832921256e-07
1.570835411e-07
-5.07862865e-08
4.792035872e-06
5.940462301e-11
-1.52593844e-09
2.380039036e-10
-4.587632333e-09
5.372108087e-10
-7.682563051e-09
9.594226779e-10
-1.083369632e-08
1.508024351e-09
-1.406407547e-08
2.18740266e-09
-1.739706569e-08
3.002966685e-09
-2.085646698e-08
3.961172175e-09
-2.446662122e-08
5.069548941e-09
-2.825251199e-08
6.336730003e-09
-3.223986035e-08
7.772481135e-09
-3.645521807e-08
9.387729317e-09
-4.0926059e-08
1.119458807e-08
-4.568086998e-08
1.32063775e-08
-5.074924291e-08
1.543763644e-08
-5.616197145e-08
1.790412467e-08
-6.195115578e-08
2.062281179e-08
-6.815032004e-08
2.361185018e-08
-7.479455124e-08
2.689052992e-08
-8.19206691e-08
3.047921429e-08
-8.956743877e-08
3.43992547e-08
-9.777584278e-08
3.867288692e-08
-1.06589434e-07
4.332311297e-08
-1.160547929e-07
4.837357586e-08
-1.262221219e-07
5.384843953e-08
-1.371460106e-07
5.977229068e-08
-1.488864186e-07
6.617008719e-08
-1.615099215e-07
7.30671793e-08
-1.750912674e-07
8.048943009e-08
-1.897152882e-07
8.84634495e-08
-2.054791663e-07
9.701691752e-08
-2.224949715e-07
1.06178858e-07
-2.408921664e-07
1.159794482e-07
-2.608192662e-07
1.264482041e-07
-2.82442781e-07
1.376074101e-07
-3.059391675e-07
1.494525054e-07
-3.314698181e-07
1.619242679e-07
-3.591273949e-07
1.736517715e-07
-3.950194518e-07
1.472879788e-07
-2.534688405e-08
4.957129885e-06
5.596444534e-11
-1.581902717e-09
2.242287563e-10
-4.755896138e-09
5.061511376e-10
-7.96448459e-09
9.040358145e-10
-1.123157981e-08
1.421137307e-09
-1.458117544e-08
2.061675488e-09
-1.8037602e-08
2.830856699e-09
-2.162564599e-08
3.734898891e-09
-2.53706609e-08
4.781059793e-09
-2.92986701e-08
5.977666759e-09
-3.343646429e-08
7.334146726e-09
-3.781169483e-08
8.861054544e-09
-4.245296348e-08
1.057009747e-08
-4.738990949e-08
1.247415346e-08
-5.265329545e-08
1.458727961e-08
-5.827509417e-08
1.692470851e-08
-6.428858128e-08
1.950282814e-08
-7.07284363e-08
2.233914222e-08
-7.763086196e-08
2.545220655e-08
-8.503373007e-08
2.886153963e-08
-9.29767684e-08
3.258750459e-08
-1.015018041e-07
3.66511618e-08
-1.106530874e-07
4.107409477e-08
-1.204777218e-07
4.587821446e-08
-1.310262372e-07
5.10855519e-08
-1.423533433e-07
5.671805415e-08
-1.545189157e-07
6.279740775e-08
-1.675892696e-07
6.934492133e-08
-1.816387751e-07
7.638150954e-08
-1.967518702e-07
8.39278344e-08
-2.130254848e-07
9.200467587e-08
-2.305718065e-07
1.006336203e-07
-2.495211043e-07
1.098381457e-07
-2.70023785e-07
1.196450342e-07
-2.922496631e-07
1.300852609e-07
-3.163793879e-07
1.411907891e-07
-3.425753402e-07
1.529943344e-07
-3.709309343e-07
1.642188585e-07
-4.06243718e-07
1.386018898e-07
-7.493537912e-10
5.113592685e-06
5.238321035e-11
-1.634285759e-09
2.098888679e-10
-4.91340129e-09
4.738175974e-10
-8.22841248e-09
8.463757663e-10
-1.160413681e-08
1.330681057e-09
-1.506547922e-08
1.930778357e-09
-1.863769747e-08
2.651661928e-09
-2.234652741e-08
3.499301725e-09
-2.621829826e-08
4.480672789e-09
-3.028003846e-08
5.60378634e-09
-3.455957492e-08
6.877720908e-09
-3.908562632e-08
8.312651492e-09
-4.388789087e-08
9.919874156e-09
-4.899712889e-08
1.171182367e-08
-5.444524168e-08
1.370207997e-08
-6.026534719e-08
1.590535973e-08
-6.649185778e-08
1.833748901e-08
-7.316056234e-08
2.101535206e-08
-8.030872176e-08
2.395681105e-08
-8.797518579e-08
2.71805919e-08
-9.620054588e-08
3.070613335e-08
-1.050273421e-07
3.455339545e-08
-1.145003457e-07
3.874262649e-08
-1.246669489e-07
4.329409254e-08
-1.355776989e-07
4.822777511e-08
-1.472870211e-07
5.356305103e-08
-1.598541866e-07
5.931837579e-08
-1.733445889e-07
6.551100683e-08
-1.878314005e-07
7.215682389e-08
-2.033976813e-07
7.927033966e-08
-2.201389945e-07
8.68650695e-08
-2.381665299e-07
9.495457357e-08
-2.576106022e-07
1.035547972e-07
-2.786240023e-07
1.126889468e-07
-3.013838066e-07
1.2239735e-07
-3.260877851e-07
1.327573652e-07
-3.529353494e-07
1.439337416e-07
-3.82107305e-07
1.548502445e-07
-4.171599059e-07
1.303485102e-07
2.263631741e-08
5.26191077e-06
4.866699069e-11
-1.682952581e-09
1.950085212e-10
-5.059742318e-09
4.402646861e-10
-8.473667815e-09
7.865390363e-10
-1.195041001e-08
1.236805633e-09
-1.551574434e-08
1.794925979e-09
-1.919581602e-08
2.465672561e-09
-2.301727191e-08
3.254756683e-09
-2.700738003e-08
4.168859648e-09
-3.119413883e-08
5.215665719e-09
-3.56063782e-08
6.403895204e-09
-4.027385286e-08
7.743335475e-09
-4.522732809e-08
9.244867016e-09
-5.049865731e-08
1.092048144e-08
-5.612085295e-08
1.278328785e-08
-6.212815045e-08
1.48475015e-08
-6.855606831e-08
1.71284111e-08
-7.544146881e-08
1.964231794e-08
-8.282262544e-08
2.240644064e-08
-9.073930526e-08
2.543877848e-08
-9.92328804e-08
2.875792799e-08
-1.083464881e-07
3.238284721e-08
-1.181252612e-07
3.633256294e-08
-1.286166606e-07
4.062582127e-08
-1.39870953e-07
4.528068435e-08
-1.519418796e-07
5.031408292e-08
-1.648875801e-07
5.574134364e-08
-1.787718443e-07
6.157572702e-08
-1.936657783e-07
6.782803837e-08
-2.096499868e-07
7.450643008e-08
-2.268173802e-07
8.16166212e-08
-2.452767149e-07
8.91629999e-08
-2.651569749e-07
9.715161399e-08
-2.866126104e-07
1.055972826e-07
-3.098294693e-07
1.145400949e-07
-3.350305917e-07
1.240851574e-07
-3.624804063e-07
1.345079704e-07
-3.925301126e-07
1.449903117e-07
-4.276418974e-07
1.219826705e-07
4.442841336e-08
5.402059598e-06
4.482220969e-11
-1.727774624e-09
1.796132894e-10
-5.194532902e-09
4.055496905e-10
-8.6996034e-09
7.246269351e-10
-1.226948612e-08
1.139668323e-09
-1.593078429e-08
1.654343139e-09
-1.97104891e-08
2.273191825e-09
-2.363611857e-08
3.001655769e-09
-2.77358417e-08
3.846110773e-09
-3.203859134e-08
4.813902659e-09
-3.657416741e-08
5.913383125e-09
-4.137333051e-08
7.153943616e-09
-4.646788567e-08
8.54604446e-09
-5.189075519e-08
1.010123477e-08
-5.767604025e-08
1.183216024e-08
-6.38590729e-08
1.375255159e-08
-7.047645664e-08
1.587718889e-08
-7.756610308e-08
1.822183328e-08
-8.516726675e-08
2.08031193e-08
-9.33205881e-08
2.363839873e-08
-1.020681565e-07