/*--------------------------------*- C++ -*----------------------------------*\
| =========                 |                                                 |
| \\      /  F ield         | OpenFOAM: The Open Source CFD Toolbox           |
|  \\    /   O peration     | Version:  v1912                                 |
|   \\  /    A nd           | Website:  www.openfoam.com                      |
|    \\/     M anipulation  |                                                 |
\*---------------------------------------------------------------------------*/
FoamFile
{
    version     2.0;
    format      ascii;
    class       surfaceScalarField;
    location    "0.3";
    object      phi.gas;
}
// * * * * * * * * * * * * * * * * * * * * * * * * * * * * * * * * * * * * * //

dimensions      [0 3 -1 0 0 0 0];
oriented        oriented;


internalField   nonuniform List<scalar> 
9440
(
9.142165249e-11
7.468503351e-09
3.668131984e-10
2.240439357e-08
8.280240064e-10
3.733845555e-08
1.478247832e-09
5.226931449e-08
2.322013251e-09
6.719565365e-08
3.365184772e-09
8.211613471e-08
4.614990174e-09
9.702939546e-08
6.080050667e-09
1.11934043e-07
7.77041811e-09
1.26828647e-07
9.697619267e-09
1.417117321e-07
1.187470747e-08
1.565817711e-07
1.431632226e-08
1.714371764e-07
1.70387577e-08
1.86276291e-07
2.006004031e-08
2.010973793e-07
2.340001764e-08
2.158986158e-07
2.708045902e-08
2.306780727e-07
3.112516982e-08
2.454337063e-07
3.556012122e-08
2.601633406e-07
4.041359722e-08
2.748646501e-07
4.571636112e-08
2.895351394e-07
5.150184383e-08
3.041721209e-07
5.780635581e-08
3.187726899e-07
6.466932467e-08
3.333336979e-07
7.213356124e-08
3.47851723e-07
8.024555482e-08
3.623230389e-07
8.905580271e-08
3.767435785e-07
9.861918235e-08
3.911088892e-07
1.089953891e-07
4.054140647e-07
1.202494994e-07
4.19653617e-07
1.3245281e-07
4.338211999e-07
1.456843242e-07
4.479089617e-07
1.600338068e-07
4.619059877e-07
1.756086664e-07
4.757944964e-07
1.925501901e-07
4.895405438e-07
2.110720836e-07
5.030720706e-07
2.31533297e-07
5.162409686e-07
2.551196719e-07
5.28302212e-07
2.782703614e-07
5.432478584e-07
4.153353722e-07
4.248244482e-07
1.00521766e-06
9.243290202e-11
6.860678146e-09
3.702742883e-10
2.05803943e-08
8.355664162e-10
3.429624945e-08
1.491562777e-09
4.800563812e-08
2.342873328e-09
6.170590238e-08
3.395465348e-09
7.539434457e-08
4.65669287e-09
8.906821665e-08
6.135328947e-09
1.027247073e-07
7.841604936e-09
1.16360928e-07
9.787257085e-09
1.299738986e-07
1.198558095e-08
1.435605321e-07
1.445149429e-08
1.571176176e-07
1.720160932e-08
1.706418025e-07
2.025431535e-08
1.841295718e-07
2.362987311e-08
1.975772256e-07
2.735052264e-08
2.10980853e-07
3.14406062e-08
2.243363027e-07
3.592670875e-08
2.376391496e-07
4.083781844e-08
2.508846563e-07
4.62055102e-08
2.640677299e-07
5.206415531e-08
2.771828729e-07
5.8451161e-08
2.902241277e-07
6.540724366e-08
3.031850157e-07
7.297673993e-08
3.160584686e-07
8.120796186e-08
3.288367525e-07
9.01536027e-08
3.415113797e-07
9.987120628e-08
3.540729991e-07
1.10423725e-07
3.665112374e-07
1.218802186e-07
3.788144301e-07
1.343168096e-07
3.909690859e-07
1.478181581e-07
4.029587229e-07
1.624800437e-07
4.147612084e-07
1.784143827e-07
4.263425354e-07
1.957598832e-07
4.376419417e-07
2.147088861e-07
4.485338918e-07
2.355795192e-07
4.587407441e-07
2.591451157e-07
4.670973871e-07
2.793385922e-07
4.83742671e-07
3.273347278e-07
3.227061713e-07
1.325344499e-06
9.205034224e-11
6.799301165e-09
3.687771483e-10
2.039572348e-08
8.32148133e-10
3.398631947e-08
1.485425263e-09
4.75671789e-08
2.333210507e-09
6.113431798e-08
3.381456143e-09
7.468368653e-08
4.637495468e-09
8.821115641e-08
6.110075577e-09
1.017125031e-07
7.809396677e-09
1.151833853e-07
9.74715844e-09
1.286193236e-07
1.1936614e-08
1.420156773e-07
1.439263227e-08
1.553676194e-07
1.71317694e-08
1.68670109e-07
2.01723506e-08
1.819178607e-07
2.353456344e-08
1.951053101e-07
2.724056425e-08
2.082265747e-07
3.131459961e-08
2.212754092e-07
3.578314524e-08
2.342451544e-07
4.067506478e-08
2.471286785e-07
4.602179133e-08
2.599183113e-07
5.185753531e-08
2.726057672e-07
5.82195221e-08
2.851820609e-07
6.514826291e-08
2.976374115e-07
7.268786344e-08
3.09961136e-07
8.088637389e-08
3.221415307e-07
8.979618372e-08
3.341657373e-07
9.947446517e-08
3.460195834e-07
1.099836679e-07
3.576873709e-07
1.213920642e-07
3.691515548e-07
1.337743361e-07
3.803921641e-07
1.472121597e-07
3.913856381e-07
1.617946294e-07
4.021023264e-07
1.776179722e-07
4.125009757e-07
1.947826298e-07
4.225164844e-07
2.133795617e-07
4.320326824e-07
2.334309664e-07
4.408396131e-07
2.547344102e-07
4.480047806e-07
2.728779234e-07
4.655609697e-07
2.787157152e-07
3.01330012e-07
1.641438546e-06
9.145311672e-11
6.706167977e-09
3.664132666e-10
2.01157723e-08
8.268081855e-10
3.351761906e-08
1.475884478e-09
4.690647583e-08
2.318224801e-09
6.027703611e-08
3.359754905e-09
7.362390444e-08
4.607774012e-09
8.694158016e-08
6.070987457e-09
1.002244332e-07
7.759545751e-09
1.134666777e-07
9.685090448e-09
1.266623434e-07
1.186080746e-08
1.39805245e-07
1.430148842e-08
1.528889495e-07
1.7023601e-08
1.659067392e-07
2.00453692e-08
1.78851571e-07
2.338686491e-08
1.917160308e-07
2.707011222e-08
2.04492281e-07
3.111920643e-08
2.171720016e-07
3.556045009e-08
2.297463212e-07
4.042250848e-08
2.422057393e-07
4.573658782e-08
2.545400367e-07
5.153663894e-08
2.667381733e-07
5.785959047e-08
2.787881731e-07
6.474561458e-08
2.906769959e-07
7.223842807e-08
3.023903939e-07
8.038563107e-08
3.139127554e-07
8.923908128e-08
3.252269339e-07
9.885529458e-08
3.363140604e-07
1.092958483e-07
3.471533282e-07
1.206277257e-07
3.577217274e-07
1.329234572e-07
3.679936673e-07
1.462607076e-07
3.779403609e-07
1.60720467e-07
3.87528717e-07
1.763817515e-07
3.967193058e-07
1.933075111e-07
4.054628878e-07
2.115078126e-07
4.13695843e-07
2.308468097e-07
4.213546898e-07
2.50730492e-07
4.279565217e-07
2.683585488e-07
4.442932546e-07
2.609094411e-07
2.8931814e-07
1.940662158e-06
9.066009483e-11
6.61575496e-09
3.632502136e-10
1.984398506e-08
8.196704132e-10
3.306254782e-08
1.46314431e-09
4.626489119e-08
2.298225729e-09
5.944439094e-08
3.330803386e-09
7.25943146e-08
4.568130121e-09
8.570779839e-08
6.018854973e-09
9.877781681e-08
7.693061653e-09
1.117971498e-07
9.602313684e-09
1.247583476e-07
1.175970671e-08
1.376536931e-07
1.417992858e-08
1.504751608e-07
1.687932798e-08
1.632143713e-07
1.98759927e-08
1.758625416e-07
2.318983872e-08
1.884104277e-07
2.684271145e-08
2.008482602e-07
3.085850129e-08
2.13165671e-07
3.526327546e-08
2.253516077e-07
4.008542876e-08
2.373942367e-07
4.535585619e-08
2.492808314e-07
5.110815062e-08
2.60997645e-07
5.737882875e-08
2.72529766e-07
6.420758848e-08
2.838609587e-07
7.163759918e-08
2.949734859e-07
7.971582478e-08
3.058479186e-07
8.849337352e-08
3.164629378e-07
9.802585467e-08
3.267951386e-07
1.083736977e-07
3.368188503e-07
1.196023318e-07
3.46506008e-07
1.317819977e-07
3.55826139e-07
1.449866897e-07
3.647466114e-07
1.592911176e-07
3.732334953e-07
1.747632693e-07
3.812539089e-07
1.91447488e-07
3.887819961e-07
2.09328349e-07
3.958133991e-07
2.282687601e-07
4.024073968e-07
2.477038636e-07
4.084909008e-07
2.622080997e-07
4.220090059e-07
2.490367376e-07
2.83398961e-07
2.233566811e-06
8.966968948e-11
6.526212949e-09
3.592928055e-10
1.957481849e-08
8.107437595e-10
3.261186675e-08
1.447218447e-09
4.562949501e-08
2.273233583e-09
5.861976988e-08
3.294630617e-09
7.157463211e-08
4.518603805e-09
8.448586623e-08
5.953731451e-09
9.734506351e-08
7.610013582e-09
1.101435828e-07
9.498916097e-09
1.228725091e-07
1.163342176e-08
1.355226086e-07
1.402808868e-08
1.480842804e-07
1.669911684e-08
1.60547503e-07
1.966442372e-08
1.72901775e-07
2.294373018e-08
1.851360477e-07
2.655865791e-08
1.972386493e-07
3.053284032e-08
2.091971971e-07
3.489204896e-08
2.20998497e-07
3.966433805e-08
2.326284281e-07
4.488020975e-08
2.440718099e-07
5.057280366e-08
2.553122499e-07
5.677811351e-08
2.663319729e-07
6.353523375e-08
2.771116297e-07
7.088663727e-08
2.876300887e-07
7.887848283e-08
2.978642151e-07
8.756094387e-08
3.077886506e-07
9.69885359e-08
3.173756167e-07
1.072203919e-07
3.26594786e-07
1.183203783e-07
3.3541331e-07
1.303568256e-07
3.437961859e-07
1.434014194e-07
3.51707339e-07
1.575263351e-07
3.591122258e-07
1.727978502e-07
3.659836774e-07
1.892631997e-07
3.723145825e-07
2.069253312e-07
3.781443021e-07
2.257118993e-07
3.836086904e-07
2.452174506e-07
3.889462882e-07
2.625013701e-07
3.985346527e-07
2.447556738e-07
2.817462244e-07
2.521704721e-06
8.848318761e-11
6.43786025e-09
3.545487076e-10
1.930922912e-08
8.000444676e-10
3.216717173e-08
1.428134232e-09
4.500252694e-08
2.243290079e-09
5.780606392e-08
3.251296365e-09
7.05684092e-08
4.459276811e-09
8.328000913e-08
5.875724841e-09
9.593108624e-08
7.510540273e-09
1.085115939e-07
9.375072247e-09
1.210111682e-07
1.148216869e-08
1.334190772e-07
1.384623281e-08
1.457241649e-07
1.648328715e-08
1.579147906e-07
1.941104604e-08
1.699787604e-07
2.264899764e-08
1.819032511e-07
2.621849667e-08
1.936747229e-07
3.014286972e-08
2.052788193e-07
3.444753498e-08
2.167002518e-07
3.916013912e-08
2.279226672e-07
4.43107137e-08
2.389284951e-07
4.993185447e-08
2.496987726e-07
5.60589271e-08
2.60212946e-07
6.273030168e-08
2.704486512e-07
6.998761751e-08
2.803814741e-07
7.787607763e-08
2.899846996e-07
8.644476562e-08
2.992290676e-07
9.574696752e-08
3.080825708e-07
1.05840458e-07
3.165103593e-07
1.167876736e-07
3.244748793e-07
1.286556262e-07
3.319364949e-07
1.415152929e-07
3.388550864e-07
1.554400459e-07
3.451936003e-07
1.705024476e-07
3.509255011e-07
1.867684186e-07
3.560500226e-07
2.042869367e-07
3.606228921e-07
2.230794513e-07
3.648083586e-07
2.428564891e-07
3.69133046e-07
2.585492586e-07
3.748405084e-07
2.373355091e-07
2.822273765e-07
2.805001668e-06
8.710246322e-11
6.350883899e-09
3.490261613e-10
1.904777878e-08
7.875907249e-10
3.172940158e-08
1.405923273e-09
4.43853073e-08
2.208444097e-09
5.700498201e-08
3.200871001e-09
6.957775297e-08
4.390245548e-09
8.209274405e-08
5.784962492e-09
9.453882568e-08
7.394805354e-09
1.069045634e-07
9.230987993e-09
1.19178164e-07
1.130620229e-08
1.31347418e-07
1.363467239e-08
1.433996377e-07
1.62322159e-08
1.553215892e-07
1.911631272e-08
1.670994165e-07
2.230618258e-08
1.78718556e-07
2.582287235e-08
1.9016364e-07
2.968935476e-08
2.014183848e-07
3.393064035e-08
2.124654623e-07
3.857390522e-08
2.23286351e-07
4.364863728e-08
2.33861165e-07
4.918680372e-08
2.44168457e-07
5.52230441e-08
2.541849948e-07
6.179489206e-08
2.638855119e-07
6.89430277e-08
2.732424374e-07
7.671156269e-08
2.822256116e-07
8.514835601e-08
2.908020104e-07
9.430535279e-08
2.989355194e-07
1.042389303e-07
3.065868296e-07
1.15010225e-07
3.137135929e-07
1.266854082e-07
3.202710918e-07
1.393358972e-07
3.262138953e-07
1.530385925e-07
3.314993705e-07
1.678765863e-07
3.360946443e-07
1.839416039e-07
3.399900645e-07
2.013404558e-07
3.432257431e-07
2.202046809e-07
3.459416516e-07
2.405625109e-07
3.487412351e-07
2.558437076e-07
3.494577328e-07
2.291947453e-07
2.857539824e-07
3.082971067e-06
8.552978786e-11
6.265476404e-09
3.42734427e-10
1.87910455e-08
7.734032148e-10
3.129952225e-08
1.380622015e-09
4.377919461e-08
2.168752399e-09
5.621828222e-08
3.143436471e-09
6.86048302e-08
4.311622365e-09
8.09266578e-08
5.681592784e-09
9.317130211e-08
7.2629994e-09
1.053259609e-07
9.066902935e-09
1.173774329e-07
1.110581893e-08
1.293120549e-07
1.339376947e-08
1.411156334e-07
1.594634115e-08
1.527733705e-07
1.878074999e-08
1.642697813e-07
2.191591379e-08
1.755886007e-07
2.537253348e-08
1.867126777e-07
2.917318419e-08
1.976238538e-07
3.334241851e-08
2.083028225e-07
3.790688381e-08
2.187289659e-07
4.289545665e-08
2.288801666e-07
4.833939747e-08
2.387325902e-07
5.42725295e-08
2.482604374e-07
6.073144636e-08
2.574356657e-07
6.775575305e-08
2.662276858e-07
7.538834422e-08
2.74603039e-07
8.36757261e-08
2.825250781e-07
9.266838829e-08
2.899536905e-07
1.02421237e-07
2.968451316e-07
1.129941202e-07
3.031520864e-07
1.244525239e-07
3.088241664e-07
1.368686405e-07
3.138091874e-07
1.503233103e-07
3.180558013e-07
1.649100466e-07
3.215183648e-07
1.807440049e-07
3.241654279e-07
1.979830426e-07
3.25994073e-07
2.168822758e-07
3.270475343e-07
2.378174487e-07
3.277822135e-07
2.565161418e-07
3.23020087e-07
2.239436814e-07
2.946210198e-07
3.35437237e-06
8.376775124e-11
6.181827237e-09
3.356838687e-10
1.853959809e-08
7.575051942e-10
3.087848447e-08
1.352271684e-09
4.318552613e-08
2.124279419e-09
5.544769514e-08
3.079085934e-09
6.765177371e-08
4.223535021e-09
7.978429639e-08
5.565784398e-09
9.183148775e-08
7.115338912e-09
1.037791997e-07
8.883089069e-09
1.156128468e-07
1.088135476e-08
1.273173375e-07
1.312393424e-08
1.388770012e-07
1.562615879e-08
1.502755079e-07
1.840495309e-08
1.614957804e-07
2.147890214e-08
1.725198937e-07
2.486832584e-08
1.833289627e-07
2.859536189e-08
1.939030114e-07
3.26840591e-08
2.042208221e-07
3.716048327e-08
2.142597597e-07
4.205283838e-08
2.239955674e-07
4.739160687e-08
2.334021313e-07
5.320971292e-08
2.424512081e-07
5.954271514e-08
2.511121182e-07
6.642903495e-08
2.593514056e-07
7.391022899e-08
2.671324714e-07
8.20313193e-08
2.74415197e-07
9.084120107e-08
2.811555884e-07
1.00393166e-07
2.873054942e-07
1.107456141e-07
2.928124771e-07
1.219631146e-07
2.976199616e-07
1.341181473e-07
3.016678292e-07
1.472942255e-07
3.048936646e-07
1.615918723e-07
3.072347752e-07
1.771405476e-07
3.086307362e-07
1.941238015e-07
3.090245529e-07
2.128427679e-07
3.083428218e-07
2.338802706e-07
3.067239981e-07
2.490432998e-07
2.976565345e-07
2.124788556e-07
3.065312822e-07
3.617226075e-06
8.18192369e-11
6.100123029e-09
3.278859874e-10
1.829399677e-08
7.399225213e-10
3.046722467e-08
1.320918245e-09
4.260561913e-08
2.075097117e-09
5.469492549e-08
3.00792349e-09
6.672068435e-08
4.126126244e-09
7.866816739e-08
5.437725651e-09
9.052230938e-08
6.952065397e-09
1.022676404e-07
8.679849497e-09
1.138882161e-07
1.063318392e-08
1.253675447e-07
1.282562283e-08
1.366885086e-07
1.527221951e-08
1.478332805e-07
1.798958222e-08
1.587832292e-07
2.099593513e-08
1.695188156e-07
2.431118557e-08
1.800194725e-07
2.795699807e-08
1.902634678e-07
3.19568769e-08
2.002277451e-07
3.633625935e-08
2.098877372e-07
4.112262239e-08
2.192171484e-07
4.634560672e-08
2.281877014e-07
5.203716291e-08
2.367688434e-07
5.823172706e-08
2.449274092e-07
6.496643467e-08
2.526272433e-07
7.228138487e-08
2.598287828e-07
8.021997451e-08
2.664886104e-07
8.8829334e-08
2.725589979e-07
9.816091888e-08
2.779874674e-07
1.082713566e-07
2.827164076e-07
1.192237413e-07
2.866827747e-07
1.310897485e-07
2.89817869e-07
1.439532662e-07
2.920470641e-07
1.579168644e-07
2.932890024e-07
1.731134541e-07
2.934529796e-07
1.897266846e-07
2.92431406e-07
2.080182075e-07
2.900742193e-07
2.28329783e-07
2.864178736e-07
2.405653447e-07
2.731644121e-07
2.002532703e-07
3.215808256e-07
3.870422668e-06
7.968741817e-11
6.020547245e-09
3.193534308e-10
1.805479228e-08
7.206836533e-10
3.006666343e-08
1.286612341e-09
4.204076861e-08
2.021284824e-09
5.396164921e-08
2.930063889e-09
6.581362738e-08
4.019553295e-09
7.758073563e-08
5.297623854e-09
8.924664345e-08
6.773444379e-09
1.007945847e-07
8.457516997e-09
1.122072835e-07
1.036171667e-08
1.234668769e-07
1.249933458e-08
1.345548332e-07
1.488512536e-08
1.454518634e-07
1.753535809e-08
1.561378239e-07
2.046787114e-08
1.665916081e-07
2.370213155e-08
1.767910222e-07
2.725929959e-08
1.867126429e-07
3.116229971e-08
1.963316519e-07
3.543590008e-08
2.056216402e-07
4.010680342e-08
2.145543799e-07
4.520375308e-08
2.230995555e-07
5.075765991e-08
2.312244493e-07
5.680175794e-08
2.388935759e-07
6.337180003e-08
2.460682643e-07
7.050630868e-08
2.527061864e-07
7.824690524e-08
2.587608308e-07
8.663875602e-08
2.641809305e-07
9.573119635e-08
2.689098466e-07
1.05578638e-07
2.728849019e-07
1.162419422e-07
2.760366166e-07
1.277905903e-07
2.78287694e-07
1.403062117e-07
2.795513951e-07
1.538884206e-07
2.797284411e-07
1.686644327e-07
2.787006731e-07
1.848040824e-07
2.763181683e-07
2.025384664e-07
2.723705648e-07
2.221729244e-07
2.668004776e-07
2.311783997e-07
2.501655444e-07
1.87199496e-07
3.39508933e-07
4.112861885e-06
7.73757517e-11
5.943279899e-09
3.10099986e-10
1.782252497e-08
6.998196245e-10
2.967770402e-08
1.24940921e-09
4.149224527e-08
1.962929069e-09
5.324951082e-08
2.845632239e-09
6.493262931e-08
3.903987471e-09
7.652441955e-08
5.145704584e-09
8.800731186e-08
6.579764413e-09
9.936327107e-08
8.216452673e-09
1.105737185e-07
1.006739735e-08
1.216194511e-07
1.214560937e-08
1.324805565e-07
1.4465526e-08
1.431363215e-07
1.7043057e-08
1.535651326e-07
1.989563316e-08
1.637443647e-07
2.304225744e-08
1.736502547e-07
2.650355967e-08
1.832577554e-07
3.030185517e-08
1.92540366e-07
3.446120936e-08
2.014699309e-07
3.900751128e-08
2.100164025e-07
4.396855991e-08
2.181475596e-07
4.937416921e-08
2.258286745e-07
5.525630017e-08
2.330221207e-07
6.164923313e-08
2.396869151e-07
6.858979738e-08
2.457781891e-07
7.611768315e-08
2.512465812e-07
8.427587571e-08
2.560375425e-07
9.311127162e-08
2.600905399e-07
1.0267557e-07
2.633381158e-07
1.130265825e-07
2.657047064e-07
1.242301984e-07
2.671049801e-07
1.363633588e-07
2.674412102e-07
1.495185579e-07
2.665986627e-07
1.638106128e-07
2.644370578e-07
1.793863067e-07
2.607748692e-07
1.964348929e-07
2.55359983e-07
2.152105172e-07
2.480530158e-07
2.210109034e-07
2.288160382e-07
1.738400382e-07
3.598778285e-07
4.344011132e-06
7.488797858e-11
5.86849727e-09
3.001405766e-10
1.759772397e-08
6.773640201e-10
2.930123098e-08
1.209368623e-09
4.096129354e-08
1.900123422e-09
5.256012089e-08
2.754763734e-09
6.407967489e-08
3.779613675e-09
7.550158764e-08
4.982210987e-09
8.680707798e-08
6.371336045e-09
9.797687033e-08
7.957044434e-09
1.089911131e-07
9.750702393e-09
1.198292951e-07
1.176502482e-08
1.304701578e-07
1.401411496e-08
1.408916026e-07
1.651350573e-08
1.510705892e-07
1.928020191e-08
1.609830239e-07
2.233272293e-08
1.706036325e-07
2.569114707e-08
1.799058127e-07
2.937715734e-08
1.88861463e-07
3.341409018e-08
1.974407795e-07
3.782699016e-08
2.056120115e-07
4.264267439e-08
2.133411717e-07
4.78898126e-08
2.205916871e-07
5.359903174e-08
2.273239828e-07
5.980305854e-08
2.334949863e-07
6.653691863e-08
2.390575433e-07
7.383821771e-08
2.439597286e-07
8.174754074e-08
2.48144034e-07
9.030902292e-08
2.515464019e-07
9.957116259e-08
2.540950446e-07
1.095879653e-07
2.557089333e-07
1.204205376e-07
2.56295694e-07
1.321392527e-07
2.557484191e-07
1.448265677e-07
2.539404089e-07
1.585805732e-07
2.507159782e-07
1.735191863e-07
2.458741623e-07
1.897836578e-07
2.391399563e-07
2.075706894e-07
2.303036469e-07
2.102736736e-07
2.091456891e-07
1.605610854e-07
3.821176216e-07
4.563730003e-06
7.22281197e-11
5.796371615e-09
2.894912491e-10
1.738090636e-08
6.533529486e-10
2.893810876e-08
1.166554812e-09
4.044912965e-08
1.832968396e-09
5.189505364e-08
2.657603436e-09
6.325670413e-08
3.646630072e-09
7.451455509e-08
4.807403229e-09
8.56486429e-08
6.148490914e-09
9.663848137e-08
7.67970564e-09
1.07462977e-07
9.412138273e-09
1.18100343e-07
1.135819338e-08
1.285280101e-07
1.353162567e-08
1.387225329e-07
1.594757632e-08
1.48659488e-07
1.862260906e-08
1.583133632e-07
2.157474467e-08
1.676574312e-07
2.482349429e-08
1.766636041e-07
2.838989206e-08
1.853022628e-07
3.229652701e-08
1.935420543e-07
3.656757756e-08
2.013496456e-07
4.12288517e-08
2.086894277e-07
4.630783908e-08
2.155231556e-07
5.183378341e-08
2.218095118e-07
5.783778862e-08
2.275035778e-07
6.43529775e-08
2.325561974e-07
7.141472772e-08
2.369132121e-07
7.906101678e-08
2.405145406e-07
8.733291834e-08
2.432930626e-07
9.627529658e-08
2.451732435e-07
1.059377332e-07
2.460693905e-07
1.163756912e-07
2.458833197e-07
1.276518223e-07
2.445010351e-07
1.398370872e-07
2.417876529e-07
1.530111028e-07
2.375790579e-07
1.672606952e-07
2.316674483e-07
1.826751921e-07
2.237755078e-07
1.993784983e-07
2.136464367e-07
1.990210262e-07
1.912308855e-07
1.474060771e-07
4.056812322e-07
4.771920145e-06
6.940047487e-11
5.727070892e-09
2.781691689e-10
1.717257632e-08
6.278250156e-10
2.85891803e-08
1.121036406e-09
3.995693972e-08
1.761571282e-09
5.125584447e-08
2.554306052e-09
6.246560947e-08
3.505247697e-09
7.356558056e-08
4.621557914e-09
8.45346419e-08
5.911580915e-09
9.535112748e-08
7.384873965e-09
1.059927336e-07
9.052239838e-09
1.164364312e-07
1.092576002e-08
1.266583755e-07
1.301882799e-08
1.366338127e-07
1.534618106e-08
1.463369798e-07
1.792393038e-08
1.55740995e-07
2.076958734e-08
1.648177358e-07
2.390208603e-08
1.735376971e-07
2.734180193e-08
1.818698247e-07
3.111056677e-08
1.897813164e-07
3.523168094e-08
1.972373789e-07
3.972992774e-08
2.042009302e-07
4.463159365e-08
2.106322336e-07
4.996450399e-08
2.16488447e-07
5.575808575e-08
2.217230672e-07
6.204347594e-08
2.262852491e-07
6.885369913e-08
2.301189732e-07
7.6223942e-08
2.331620287e-07
8.419195571e-08
2.353447717e-07
9.279861532e-08
2.365885961e-07
1.020886284e-07
2.368040414e-07
1.121113093e-07
2.35888397e-07
1.229211705e-07
2.337225793e-07
1.345776609e-07
2.301668888e-07
1.471428479e-07
2.250547921e-07
1.606747396e-07
2.181828555e-07
1.752123552e-07
2.092927138e-07
1.907882522e-07
1.981238843e-07
1.873913564e-07
1.751667336e-07
1.343176184e-07
4.301597797e-07
4.968479487e-06
6.640962108e-11
5.660758474e-09
2.661926137e-10
1.697322427e-08
6.008213041e-10
2.825526568e-08
1.07288641e-09
3.948587788e-08
1.686046085e-09
5.064398769e-08
2.445035759e-09
6.170823306e-08
3.35569017e-09
7.265686305e-08
4.424967602e-09
8.346764104e-08
5.660977427e-09
9.411775283e-08
7.073010098e-09
1.045837168e-07
8.671568503e-09
1.148412948e-07
1.04683996e-08
1.248654017e-07
1.247652483e-08
1.346300135e-07
1.471026804e-08
1.44108069e-07
1.71852796e-08
1.532713651e-07
1.991855524e-08
1.620904394e-07
2.292844778e-08
1.70534436e-07
2.623467166e-08
1.785709464e-07
2.985830006e-08
1.86165818e-07
3.382175453e-08
1.932829186e-07
3.814879043e-08
1.998838437e-07
4.286448289e-08
2.059275507e-07
4.79952203e-08
2.113699004e-07
5.356871734e-08
2.161630833e-07
5.961406353e-08
2.202549042e-07
6.616183018e-08
2.235878922e-07
7.324426115e-08
2.260982026e-07
8.089557119e-08
2.277142679e-07
8.91523708e-08
2.283551469e-07
9.805419226e-08
2.279285319e-07
1.076439913e-07
2.263283769e-07
1.179683061e-07
2.234321332e-07
1.290762206e-07
2.190976684e-07
1.410154879e-07
2.131599391e-07
1.538222906e-07
2.054272857e-07
1.674972793e-07
1.956765476e-07
1.819886525e-07
1.836912904e-07
1.757380838e-07
1.608121636e-07
1.214437235e-07
4.552998573e-07
5.153579536e-06
6.326041401e-11
5.59759287e-09
2.535809699e-10
1.678332611e-08
5.723853895e-10
2.793716074e-08
1.022182167e-09
3.90370644e-08
1.606513488e-09
5.006093418e-08
2.329966101e-09
6.098636401e-08
3.198193493e-09
7.179053896e-08
4.217940448e-09
8.245013401e-08
5.397070706e-09
9.294121914e-08
6.744596793e-09
1.032391674e-07
8.270710765e-09
1.133185647e-07
9.98681466e-09
1.231531202e-07
1.19055488e-08
1.327155758e-07
1.404081627e-08
1.419776128e-07
1.640780195e-08
1.509097516e-07
1.902298389e-08
1.59481243e-07
2.190413514e-08
1.676599432e-07
2.507031414e-08
1.754121662e-07
2.854184358e-08
1.827025046e-07
3.234027657e-08
1.894936067e-07
3.648835157e-08
1.957458953e-07
4.100994065e-08
2.014172095e-07
4.592999624e-08
2.06462348e-07
5.127450766e-08
2.108324871e-07
5.707048121e-08
2.14474442e-07
6.334596532e-08
2.173297341e-07
7.013014557e-08
2.19333425e-07
7.745353282e-08
2.204126752e-07
8.534826218e-08
2.204849868e-07
9.384848817e-08
2.194561175e-07
1.029907622e-07
2.172177203e-07
1.128141154e-07
2.136448919e-07
1.233590305e-07
2.08594157e-07
1.346636045e-07
2.01902976e-07
1.467527949e-07
1.933929062e-07
1.596108513e-07
1.828807962e-07
1.73143258e-07
1.702215214e-07
1.644884562e-07
1.477497574e-07
1.093057575e-07
4.807262644e-07
5.327979889e-06
5.995799102e-11
5.537727445e-09
2.403547567e-10
1.66033423e-08
5.425633503e-10
2.763563573e-08
9.690054002e-10
3.861158385e-08
1.523100866e-09
4.950808905e-08
2.209279986e-09
6.030173579e-08
3.033005935e-09
7.096867912e-08
4.000799916e-09
8.148453907e-08
5.120269357e-09
9.182430275e-08
6.400138038e-09
1.019622305e-07
7.850276799e-09
1.118717652e-07
9.481733333e-09
1.215254435e-07
1.130675916e-08
1.308948084e-07
1.333883159e-08
1.399503207e-07
1.559266814e-08
1.486612667e-07
1.808423162e-08
1.569956587e-07
2.083072233e-08
1.649201232e-07
2.385055534e-08
1.723997684e-07
2.71633206e-08
1.793980221e-07
3.078972528e-08
1.858764273e-07
3.475151718e-08
1.917943803e-07
3.907139199e-08
1.971087889e-07
4.377288946e-08
2.017736277e-07
4.888028657e-08
2.057393604e-07
5.441850112e-08
2.089521914e-07
6.04130242e-08
2.113531062e-07
6.688990777e-08
2.128766528e-07
7.387583415e-08
2.134494203e-07
8.13982957e-08
2.129881745e-07
8.948589949e-08
2.113976526e-07
9.816875169e-08
2.085681145e-07
1.074787936e-07
2.043729593e-07
1.174495586e-07
1.986672361e-07
1.281141483e-07
1.912889372e-07
1.394979746e-07
1.820672862e-07
1.515967984e-07
1.708477154e-07
1.643399873e-07
1.57543985e-07
1.538481354e-07
1.355630614e-07
9.831197275e-08
5.060344604e-07
5.492824592e-06
5.650776966e-11
5.481310127e-09
2.265356335e-10
1.643371706e-08
5.114038017e-10
2.735143389e-08
9.134422833e-10
3.821048318e-08
1.43594238e-09
4.898680935e-08
2.083169818e-09
5.965602354e-08
2.860388201e-09
7.019328593e-08
3.773884949e-09
8.057319605e-08
4.831000422e-09
9.07696916e-08
6.040158892e-09
1.007559529e-07
7.410899884e-09
1.105043118e-07
8.953908061e-09
1.199861646e-07
1.068103962e-08
1.291718879e-07
1.260534275e-08
1.380307562e-07
1.474106872e-08
1.465308595e-07
1.710367148e-08
1.546390147e-07
1.970979122e-08
1.623206704e-07
2.257721948e-08
1.695397931e-07
2.572484135e-08
1.762587279e-07
2.917255339e-08
1.824380194e-07
3.294115485e-08
1.880361761e-07
3.705221224e-08
1.930093562e-07
4.152790057e-08
1.973109473e-07
4.639082769e-08
2.008910062e-07
5.166385264e-08
2.036955181e-07
5.736991491e-08
2.056654278e-07
6.35319014e-08
2.067353862e-07
7.017258327e-08
2.068321612e-07
7.73146674e-08
2.058726621e-07
8.498102307e-08
2.037615674e-07
9.319513274e-08
2.003886421e-07
1.019818726e-07
1.956260473e-07
1.113685847e-07
1.89326512e-07
1.213862939e-07
1.813244715e-07
1.320697805e-07
1.71445361e-07
1.434512294e-07
1.595359204e-07
1.55548569e-07
1.455163296e-07
1.437387101e-07
1.238723014e-07
8.858169677e-08
5.304945649e-07
5.649046416e-06
5.291548232e-11
5.4284831e-09
2.121464551e-10
1.627487743e-08
4.789579932e-10
2.708527005e-08
8.55583567e-10
3.783476979e-08
1.345179138e-09
4.84984017e-08
1.951837682e-09
5.905084128e-08
2.680613635e-09
6.946629041e-08
3.537550114e-09
7.971836337e-08
4.529709425e-09
8.977998244e-08
5.665205417e-09
9.962328046e-08
6.953236183e-09
1.092195096e-07
8.404114999e-09
1.185389558e-07
1.002929702e-08
1.275508595e-07
1.184139941e-08
1.362233394e-07
1.385421064e-08
1.44523321e-07
1.608268562e-08
1.524164628e-07
1.854292244e-08
1.598670791e-07
2.125211618e-08
1.668380495e-07
2.422848488e-08
1.732907081e-07
2.749116312e-08
1.791846963e-07
3.106006089e-08
1.844777629e-07
3.495568452e-08
1.891254885e-07
3.919891972e-08
1.930809034e-07
4.381078206e-08
1.962939617e-07
4.881214186e-08
1.98710827e-07
5.422343935e-08
2.002729153e-07
6.006441459e-08
2.009156297e-07
6.635389096e-08
2.005667213e-07
7.310967098e-08
1.991442033e-07
8.034864962e-08
1.965537737e-07
8.808729236e-08
1.926857587e-07
9.634282357e-08
1.874117411e-07
1.051356587e-07
1.80581454e-07
1.144942706e-07
1.720214886e-07
1.244645371e-07
1.61539988e-07
1.351267298e-07
1.489481536e-07
1.466330768e-07
1.340860155e-07
1.338025523e-07
1.12443291e-07
7.944112303e-08
5.537753522e-07
5.797193686e-06
4.918712159e-11
5.379382535e-09
1.97211223e-10
1.612723248e-08
4.452797936e-10
2.683782911e-08
7.955246072e-10
3.748540955e-08
1.250959316e-09
4.804411986e-08
1.815495506e-09
5.848773924e-08
2.493968444e-09
6.878954918e-08
3.292165927e-09
7.892221501e-08
4.216860709e-09
8.885767799e-08
5.275844883e-09
9.856705588e-08
6.477964674e-09
1.080205514e-07
7.83315347e-09
1.171873688e-07
9.352460144e-09
1.260356386e-07
1.104806981e-08
1.3453235e-07
1.293331325e-08
1.4264329e-07
1.502265937e-08
1.503329876e-07
1.733168681e-08
1.575646567e-07
1.987702839e-08
1.643001334e-07
2.267628224e-08
1.704997987e-07
2.574788317e-08
1.761224714e-07
2.911092916e-08
1.811252534e-07
3.278495834e-08
1.854633043e-07
3.678967258e-08
1.890895133e-07
4.114460923e-08
1.919540264e-07
4.586876577e-08
1.940035808e-07
5.098018866e-08
1.951805852e-07
5.649554921e-08
1.954218704e-07
6.242974604e-08
1.946570281e-07
6.879559853e-08
1.928062358e-07
7.560376836e-08
1.897774672e-07
8.286311939e-08
1.854629901e-07
9.05820338e-08
1.797350756e-07
9.877164656e-08
1.724409608e-07
1.07453283e-07
1.633973956e-07
1.166752275e-07
1.523859903e-07
1.265513701e-07
1.391519298e-07
1.373558657e-07
1.233667804e-07
1.234993374e-07
1.0135432e-07
7.038107351e-08
5.752056295e-07
5.936233587e-06
4.532903576e-11
5.334138235e-09
1.817552586e-10
1.599117227e-08
4.10425929e-10
2.66097646e-08
7.333656951e-10
3.716332474e-08
1.153438553e-09
4.762516218e-08
1.674365586e-09
5.796820091e-08
2.300752287e-09
6.816484141e-08
3.038119451e-09
7.818683739e-08
3.892938023e-09
8.800518408e-08
4.872666268e-09
9.759001636e-08
5.985787481e-09
1.069105169e-07
7.241846049e-09
1.159348342e-07
8.65147905e-09
1.246300123e-07
1.022643909e-08
1.329619319e-07
1.197960537e-08
1.408952611e-07
1.392497605e-08
1.483934186e-07
1.607763714e-08
1.554185403e-07
1.845369955e-08
1.619314486e-07
2.1070198e-08
1.678916133e-07
2.394494277e-08
1.732570919e-07
2.709631549e-08
1.779844318e-07
3.054300241e-08
1.820285071e-07
3.430365854e-08
1.85342261e-07
3.83964978e-08
1.878763079e-07
4.283881144e-08
1.895783411e-07
4.764642006e-08
1.903922807e-07
5.283307736e-08
1.902570765e-07
5.840986002e-08
1.891050643e-07
6.438460319e-08
1.868597479e-07
7.076152158e-08
1.83432841e-07
7.754123575e-08
1.787203571e-07
8.472175601e-08
1.725974033e-07
9.230149911e-08
1.649111218e-07
1.002869447e-07
1.554706867e-07
1.087111716e-07
1.440319065e-07
1.176802145e-07
1.302677643e-07
1.274883605e-07
1.136533852e-07
1.120407656e-07
9.1220771e-08
5.930149934e-08
5.956080579e-07
6.06118725e-06
4.1347895e-11
5.292873312e-09
1.658051916e-10
1.586706689e-08
3.74456059e-10
2.640169698e-08
6.692122687e-10
3.686939184e-08
1.052780342e-09
4.724266894e-08
1.528681169e-09
5.749363999e-08
2.101279139e-09
6.759386547e-08
2.77581549e-09