/*--------------------------------*- C++ -*----------------------------------*\
| =========                 |                                                 |
| \\      /  F ield         | OpenFOAM: The Open Source CFD Toolbox           |
|  \\    /   O peration     | Version:  v1912                                 |
|   \\  /    A nd           | Website:  www.openfoam.com                      |
|    \\/     M anipulation  |                                                 |
\*---------------------------------------------------------------------------*/
FoamFile
{
    version     2.0;
    format      ascii;
    class       volScalarField;
    location    "0.3";
    object      Tf.gasAndLiquid;
}
// * * * * * * * * * * * * * * * * * * * * * * * * * * * * * * * * * * * * * //

dimensions      [0 0 0 1 0 0 0];


internalField   nonuniform List<scalar> 
4800
(
111.5392596
111.5392596
111.5392596
111.5392596
111.5392596
111.5392596
111.5392596
111.5392596
111.5392596
111.5392595
111.5392595
111.5392595
111.5392595
111.5392595
111.5392595
111.5392595
111.5392594
111.5392594
111.5392594
111.5392594
111.5392593
111.5392593
111.5392593
111.5392593
111.5392592
111.5392592
111.5392592
111.5392591
111.5392591
111.5392591
111.539259
111.539259
111.539259
111.5392591
111.5392553
111.5393073
111.5388017
111.5420564
111.5329045
111.538
111.539249
111.539249
111.539249
111.539249
111.539249
111.539249
111.539249
111.5392489
111.5392489
111.5392489
111.5392489
111.5392489
111.5392489
111.5392489
111.5392488
111.5392488
111.5392488
111.5392488
111.5392487
111.5392487
111.5392487
111.5392486
111.5392486
111.5392486
111.5392485
111.5392485
111.5392484
111.5392484
111.5392483
111.5392483
111.5392482
111.5392481
111.539248
111.539248
111.5392461
111.5392717
111.5390081
111.5408154
111.538
111.538
111.5392384
111.5392384
111.5392384
111.5392384
111.5392384
111.5392384
111.5392383
111.5392383
111.5392383
111.5392383
111.5392383
111.5392383
111.5392382
111.5392382
111.5392382
111.5392382
111.5392381
111.5392381
111.5392381
111.539238
111.539238
111.539238
111.5392379
111.5392379
111.5392378
111.5392378
111.5392377
111.5392376
111.5392376
111.5392375
111.5392374
111.5392373
111.5392371
111.539237
111.5392359
111.5392502
111.5390892
111.5402982
111.538
111.538
111.5392278
111.5392278
111.5392278
111.5392278
111.5392278
111.5392277
111.5392277
111.5392277
111.5392277
111.5392277
111.5392277
111.5392276
111.5392276
111.5392276
111.5392276
111.5392275
111.5392275
111.5392275
111.5392274
111.5392274
111.5392273
111.5392273
111.5392272
111.5392272
111.5392271
111.539227
111.539227
111.5392269
111.5392268
111.5392267
111.5392265
111.5392264
111.5392262
111.5392261
111.5392252
111.5392349
111.5391165
111.5400675
111.538
111.538
111.5392172
111.5392172
111.5392172
111.5392172
111.5392172
111.5392171
111.5392171
111.5392171
111.5392171
111.5392171
111.5392171
111.539217
111.539217
111.539217
111.5392169
111.5392169
111.5392169
111.5392168
111.5392168
111.5392167
111.5392167
111.5392166
111.5392166
111.5392165
111.5392164
111.5392163
111.5392162
111.5392161
111.539216
111.5392159
111.5392157
111.5392156
111.5392154
111.5392151
111.5392144
111.5392218
111.5391239
111.5399549
111.538
111.538
111.5392066
111.5392066
111.5392066
111.5392066
111.5392066
111.5392065
111.5392065
111.5392065
111.5392065
111.5392065
111.5392064
111.5392064
111.5392064
111.5392064
111.5392063
111.5392063
111.5392062
111.5392062
111.5392061
111.5392061
111.539206
111.5392059
111.5392059
111.5392058
111.5392057
111.5392056
111.5392055
111.5392054
111.5392053
111.5392051
111.5392049
111.5392047
111.5392045
111.5392042
111.5392036
111.5392095
111.5391235
111.5398946
111.538
111.538
111.539196
111.539196
111.539196
111.539196
111.539196
111.5391959
111.5391959
111.5391959
111.5391959
111.5391959
111.5391958
111.5391958
111.5391958
111.5391957
111.5391957
111.5391956
111.5391956
111.5391955
111.5391955
111.5391954
111.5391954
111.5391953
111.5391952
111.5391951
111.539195
111.5391949
111.5391948
111.5391947
111.5391945
111.5391943
111.5391942
111.5391939
111.5391937
111.5391934
111.5391928
111.5391976
111.5391199
111.5398658
111.538
111.538
111.5391854
111.5391854
111.5391854
111.5391854
111.5391854
111.5391853
111.5391853
111.5391853
111.5391853
111.5391853
111.5391852
111.5391852
111.5391852
111.5391851
111.5391851
111.539185
111.539185
111.5391849
111.5391849
111.5391848
111.5391847
111.5391846
111.5391845
111.5391844
111.5391843
111.5391842
111.5391841
111.5391839
111.5391838
111.5391836
111.5391834
111.5391832
111.5391829
111.5391826
111.539182
111.5391858
111.5391157
111.5398521
111.538
111.538
111.5391748
111.5391748
111.5391748
111.5391748
111.5391748
111.5391747
111.5391747
111.5391747
111.5391747
111.5391747
111.5391746
111.5391746
111.5391745
111.5391745
111.5391745
111.5391744
111.5391743
111.5391743
111.5391742
111.5391741
111.5391741
111.539174
111.5391739
111.5391738
111.5391737
111.5391735
111.5391734
111.5391732
111.5391731
111.5391729
111.5391726
111.5391724
111.5391721
111.5391718
111.5391713
111.5391741
111.5391141
111.5398137
111.538
111.538
111.5391642
111.5391642
111.5391642
111.5391642
111.5391642
111.5391641
111.5391641
111.5391641
111.5391641
111.5391641
111.539164
111.539164
111.5391639
111.5391639
111.5391638
111.5391638
111.5391637
111.5391637
111.5391636
111.5391635
111.5391634
111.5391633
111.5391632
111.5391631
111.539163
111.5391629
111.5391627
111.5391625
111.5391624
111.5391622
111.5391619
111.5391617
111.5391614
111.539161
111.5391606
111.5391625
111.5391124
111.5397709
111.538
111.538
111.5391536
111.5391536
111.5391536
111.5391536
111.5391536
111.5391536
111.5391535
111.5391535
111.5391535
111.5391535
111.5391534
111.5391534
111.5391533
111.5391533
111.5391532
111.5391532
111.5391531
111.539153
111.539153
111.5391529
111.5391528
111.5391527
111.5391526
111.5391525
111.5391523
111.5391522
111.539152
111.5391519
111.5391517
111.5391515
111.5391512
111.5391509
111.5391506
111.5391503
111.5391499
111.539151
111.5391109
111.5397199
111.538
111.538
111.539143
111.539143
111.539143
111.539143
111.539143
111.539143
111.539143
111.5391429
111.5391429
111.5391429
111.5391428
111.5391428
111.5391427
111.5391427
111.5391426
111.5391426
111.5391425
111.5391424
111.5391423
111.5391423
111.5391422
111.5391421
111.5391419
111.5391418
111.5391417
111.5391415
111.5391414
111.5391412
111.539141
111.5391408
111.5391405
111.5391402
111.5391399
111.5391396
111.5391392
111.5391397
111.5391092
111.5396614
111.538
111.538
111.5391324
111.5391324
111.5391324
111.5391324
111.5391324
111.5391324
111.5391324
111.5391323
111.5391323
111.5391323
111.5391322
111.5391322
111.5391321
111.5391321
111.539132
111.539132
111.5391319
111.5391318
111.5391317
111.5391316
111.5391315
111.5391314
111.5391313
111.5391312
111.539131
111.5391309
111.5391307
111.5391305
111.5391303
111.5391301
111.5391298
111.5391296
111.5391293
111.5391289
111.5391286
111.5391285
111.5391068
111.5395977
111.538
111.538
111.5391219
111.5391219
111.5391219
111.5391218
111.5391218
111.5391218
111.5391218
111.5391218
111.5391217
111.5391217
111.5391216
111.5391216
111.5391215
111.5391215
111.5391214
111.5391214
111.5391213
111.5391212
111.5391211
111.539121
111.5391209
111.5391208
111.5391207
111.5391205
111.5391204
111.5391202
111.5391201
111.5391199
111.5391197
111.5391194
111.5391192
111.5391189
111.5391186
111.5391183
111.5391179
111.5391176
111.5391037
111.5395288
111.538
111.538
111.5391113
111.5391113
111.5391113
111.5391113
111.5391113
111.5391112
111.5391112
111.5391112
111.5391111
111.5391111
111.5391111
111.539111
111.539111
111.5391109
111.5391108
111.5391108
111.5391107
111.5391106
111.5391105
111.5391104
111.5391103
111.5391102
111.5391101
111.5391099
111.5391098
111.5391096
111.5391094
111.5391092
111.539109
111.5391088
111.5391086
111.5391083
111.539108
111.5391077
111.5391073
111.5391067
111.5390998
111.5394564
111.538
111.538
111.5391007
111.5391007
111.5391007
111.5391007
111.5391007
111.5391007
111.5391006
111.5391006
111.5391006
111.5391005
111.5391005
111.5391004
111.5391004
111.5391003
111.5391003
111.5391002
111.5391001
111.5391
111.5390999
111.5390998
111.5390997
111.5390996
111.5390995
111.5390993
111.5390992
111.539099
111.5390988
111.5390986
111.5390984
111.5390982
111.5390979
111.5390977
111.5390974
111.539097
111.5390967
111.5390959
111.539095
111.5393827
111.538
111.538
111.5390902
111.5390901
111.5390901
111.5390901
111.5390901
111.5390901
111.5390901
111.53909
111.53909
111.53909
111.5390899
111.5390899
111.5390898
111.5390897
111.5390897
111.5390896
111.5390895
111.5390894
111.5390893
111.5390892
111.5390891
111.539089
111.5390889
111.5390887
111.5390886
111.5390884
111.5390882
111.539088
111.5390878
111.5390876
111.5390873
111.539087
111.5390868
111.5390864
111.5390861
111.5390853
111.5390893
111.5393097
111.538
111.538
111.5390796
111.5390796
111.5390796
111.5390796
111.5390795
111.5390795
111.5390795
111.5390795
111.5390794
111.5390794
111.5390793
111.5390793
111.5390792
111.5390792
111.5390791
111.539079
111.5390789
111.5390788
111.5390787
111.5390786
111.5390785
111.5390784
111.5390783
111.5390781
111.539078
111.5390778
111.5390776
111.5390774
111.5390772
111.539077
111.5390767
111.5390765
111.5390762
111.5390759
111.5390755
111.5390747
111.5390827
111.5392365
111.538
111.538
111.539069
111.539069
111.539069
111.539069
111.539069
111.539069
111.5390689
111.5390689
111.5390689
111.5390688
111.5390688
111.5390687
111.5390687
111.5390686
111.5390685
111.5390685
111.5390684
111.5390683
111.5390682
111.5390681
111.5390679
111.5390678
111.5390677
111.5390675
111.5390674
111.5390672
111.539067
111.5390668
111.5390666
111.5390664
111.5390661
111.5390659
111.5390656
111.5390653
111.539065
111.5390641
111.5390755
111.5390795
111.538
111.538
111.5390585
111.5390585
111.5390585
111.5390584
111.5390584
111.5390584
111.5390584
111.5390583
111.5390583
111.5390583
111.5390582
111.5390582
111.5390581
111.539058
111.539058
111.5390579
111.5390578
111.5390577
111.5390576
111.5390575
111.5390574
111.5390572
111.5390571
111.539057
111.5390568
111.5390566
111.5390564
111.5390562
111.539056
111.5390558
111.5390556
111.5390553
111.539055
111.5390547
111.5390544
111.5390537
111.5390677
111.5389233
111.538
111.538
111.5390479
111.5390479
111.5390479
111.5390479
111.5390479
111.5390479
111.5390478
111.5390478
111.5390478
111.5390477
111.5390477
111.5390476
111.5390475
111.5390475
111.5390474
111.5390473
111.5390472
111.5390471
111.539047
111.5390469
111.5390468
111.5390467
111.5390465
111.5390464
111.5390462
111.5390461
111.5390459
111.5390457
111.5390455
111.5390452
111.539045
111.5390447
111.5390445
111.5390442
111.5390439
111.5390432
111.5390593
111.5387802
111.538
111.538
111.5390374
111.5390374
111.5390374
111.5390374
111.5390373
111.5390373
111.5390373
111.5390372
111.5390372
111.5390372
111.5390371
111.5390371
111.539037
111.5390369
111.5390369
111.5390368
111.5390367
111.5390366
111.5390365
111.5390364
111.5390362
111.5390361
111.539036
111.5390358
111.5390357
111.5390355
111.5390353
111.5390351
111.5390349
111.5390347
111.5390345
111.5390342
111.5390339
111.5390337
111.5390334
111.5390328
111.5390504
111.5386449
111.538
111.538
111.5390268
111.5390268
111.5390268
111.5390268
111.5390268
111.5390268
111.5390267
111.5390267
111.5390267
111.5390266
111.5390266
111.5390265
111.5390264
111.5390264
111.5390263
111.5390262
111.5390261
111.539026
111.5390259
111.5390258
111.5390257
111.5390256
111.5390254
111.5390253
111.5390251
111.5390249
111.5390248
111.5390246
111.5390244
111.5390241
111.5390239
111.5390237
111.5390234
111.5390232
111.5390229
111.5390224
111.539041
111.5385175
111.538
111.538
111.5390163
111.5390163
111.5390163
111.5390163
111.5390163
111.5390162
111.5390162
111.5390162
111.5390161
111.5390161
111.539016
111.539016
111.5390159
111.5390158
111.5390158
111.5390157
111.5390156
111.5390155
111.5390154
111.5390153
111.5390151
111.539015
111.5390149
111.5390147
111.5390146
111.5390144
111.5390142
111.539014
111.5390138
111.5390136
111.5390134
111.5390131
111.5390129
111.5390126
111.5390124
111.5390121
111.5390313
111.5384129
111.538
111.538
111.5390058
111.5390058
111.5390058
111.5390057
111.5390057
111.5390057
111.5390057
111.5390056
111.5390056
111.5390055
111.5390055
111.5390054
111.5390054
111.5390053
111.5390052
111.5390051
111.5390051
111.539005
111.5390048
111.5390047
111.5390046
111.5390045
111.5390043
111.5390042
111.539004
111.5390039
111.5390037
111.5390035
111.5390033
111.5390031
111.5390029
111.5390026
111.5390024
111.5390021
111.5390019
111.5390018
111.5390214
111.5382924
111.538
111.538
111.5389952
111.5389952
111.5389952
111.5389952
111.5389952
111.5389952
111.5389951
111.5389951
111.5389951
111.538995
111.538995
111.5389949
111.5389948
111.5389948
111.5389947
111.5389946
111.5389945
111.5389944
111.5389943
111.5389942
111.5389941
111.5389939
111.5389938
111.5389937
111.5389935
111.5389933
111.5389932
111.538993
111.5389928
111.5389926
111.5389923
111.5389921
111.5389919
111.5389916
111.5389914
111.5389914
111.5390112
111.5381751
111.538
111.538
111.5389847
111.5389847
111.5389847
111.5389847
111.5389847
111.5389846
111.5389846
111.5389846
111.5389845
111.5389845
111.5389844
111.5389844
111.5389843
111.5389842
111.5389842
111.5389841
111.538984
111.5389839
111.5389838
111.5389837
111.5389836
111.5389834
111.5389833
111.5389831
111.538983
111.5389828
111.5389826
111.5389824
111.5389823
111.5389821
111.5389818
111.5389816
111.5389814
111.5389812
111.5389809
111.5389811
111.5390009
111.538079
111.538
111.538
111.5389742
111.5389742
111.5389742
111.5389742
111.5389741
111.5389741
111.5389741
111.5389741
111.538974
111.538974
111.5389739
111.5389739
111.5389738
111.5389737
111.5389737
111.5389736
111.5389735
111.5389734
111.5389733
111.5389732
111.538973
111.5389729
111.5389728
111.5389726
111.5389725
111.5389723
111.5389721
111.5389719
111.5389717
111.5389715
111.5389713
111.5389711
111.5389709
111.5389707
111.5389704
111.5389708
111.5389905
111.5379929
111.538
111.538
111.5389637
111.5389637
111.5389637
111.5389637
111.5389636
111.5389636
111.5389636
111.5389635
111.5389635
111.5389635
111.5389634
111.5389633
111.5389633
111.5389632
111.5389631
111.5389631
111.538963
111.5389629
111.5389628
111.5389626
111.5389625
111.5389624
111.5389623
111.5389621
111.538962
111.5389618
111.5389616
111.5389614
111.5389612
111.5389611
111.5389608
111.5389606
111.5389604
111.5389602
111.53896
111.5389606
111.53898
111.537921
111.538
111.538
111.5389532
111.5389532
111.5389532
111.5389531
111.5389531
111.5389531
111.5389531
111.538953
111.538953
111.5389529
111.5389529
111.5389528
111.5389528
111.5389527
111.5389526
111.5389525
111.5389525
111.5389524
111.5389523
111.5389521
111.538952
111.5389519
111.5389518
111.5389516
111.5389515
111.5389513
111.5389511
111.5389509
111.5389508
111.5389506
111.5389504
111.5389502
111.53895
111.5389497
111.5389495
111.5389503
111.5389695
111.5378578
111.538
111.538
111.5389427
111.5389427
111.5389426
111.5389426
111.5389426
111.5389426
111.5389426
111.5389425
111.5389425
111.5389424
111.5389424
111.5389423
111.5389423
111.5389422
111.5389421
111.538942
111.538942
111.5389419
111.5389418
111.5389416
111.5389415
111.5389414
111.5389413
111.5389411
111.538941
111.5389408
111.5389406
111.5389404
111.5389403
111.5389401
111.5389399
111.5389397
111.5389395
111.5389393
111.538939
111.5389401
111.5389591
111.5378105
111.538
111.538
111.5389322
111.5389322
111.5389321
111.5389321
111.5389321
111.5389321
111.5389321
111.538932
111.538932
111.5389319
111.5389319
111.5389318
111.5389318
111.5389317
111.5389316
111.5389315
111.5389315
111.5389314
111.5389313
111.5389311
111.538931
111.5389309
111.5389308
111.5389306
111.5389305
111.5389303
111.5389301
111.53893
111.5389298
111.5389296
111.5389294
111.5389292
111.538929
111.5389288
111.5389286
111.5389298
111.5389487
111.5377698
111.538
111.538
111.5389217
111.5389217
111.5389216
111.5389216
111.5389216
111.5389216
111.5389216
111.5389215
111.5389215
111.5389214
111.5389214
111.5389213
111.5389213
111.5389212
111.5389211
111.5389211
111.538921
111.5389209
111.5389208
111.5389207
111.5389205
111.5389204
111.5389203
111.5389201
111.53892
111.5389198
111.5389197
111.5389195
111.5389193
111.5389191
111.5389189
111.5389187
111.5389185
111.5389183
111.5389181
111.5389196
111.5389384
111.5377409
111.538
111.538
111.5389112
111.5389112
111.5389112
111.5389111
111.5389111
111.5389111
111.5389111
111.538911
111.538911
111.538911
111.5389109
111.5389109
111.5389108
111.5389107
111.5389107
111.5389106
111.5389105
111.5389104
111.5389103
111.5389102
111.5389101
111.5389099
111.5389098
111.5389097
111.5389095
111.5389094
111.5389092
111.538909
111.5389088
111.5389087
111.5389085
111.5389083
111.5389081
111.5389079
111.5389077
111.5389094
111.5389282
111.537718
111.538
111.538
111.5389007
111.5389007
111.5389007
111.5389007
111.5389006
111.5389006
111.5389006
111.5389006
111.5389005
111.5389005
111.5389004
111.5389004
111.5389003
111.5389002
111.5389002
111.5389001
111.5389
111.5388999
111.5388998
111.5388997
111.5388996
111.5388995
111.5388993
111.5388992
111.538899
111.5388989
111.5388987
111.5388986
111.5388984
111.5388982
111.538898
111.5388978
111.5388976
111.5388974
111.5388972
111.5388993
111.5389181
111.5377051
111.538
111.538
111.5388902
111.5388902
111.5388902
111.5388902
111.5388901
111.5388901
111.5388901
111.5388901
111.53889
111.53889
111.5388899
111.5388899
111.5388898
111.5388898
111.5388897
111.5388896
111.5388895
111.5388894
111.5388894
111.5388892
111.5388891
111.538889
111.5388889
111.5388887
111.5388886
111.5388884
111.5388883
111.5388881
111.5388879
111.5388877
111.5388875
111.5388873
111.5388872
111.538887
111.5388868
111.5388892
111.5389081
111.537699
111.538
111.538
111.5388797
111.5388797
111.5388797
111.5388797
111.5388797
111.5388796
111.5388796
111.5388796
111.5388796
111.5388795
111.5388795
111.5388794
111.5388794
111.5388793
111.5388792
111.5388792
111.5388791
111.538879
111.5388789
111.5388788
111.5388787
111.5388786
111.5388784
111.5388783
111.5388781
111.538878
111.5388778
111.5388776
111.5388775
111.5388773
111.5388771
111.5388769
111.5388767
111.5388765
111.5388763
111.5388791
111.5388982
111.5377031
111.538
111.538
111.5388692
111.5388692
111.5388692
111.5388692
111.5388692
111.5388692
111.5388691
111.5388691
111.5388691
111.538869
111.538869
111.538869
111.5388689
111.5388688
111.5388688
111.5388687
111.5388686
111.5388685
111.5388684
111.5388683
111.5388682
111.5388681
111.538868
111.5388678
111.5388677
111.5388675
111.5388674
111.5388672
111.538867
111.5388668
111.5388666
111.5388664
111.5388662
111.538866
111.5388659
111.5388692
111.5388885
111.5377167
111.538
111.538
111.5388588
111.5388588
111.5388587
111.5388587
111.5388587
111.5388587
111.5388587
111.5388586
111.5388586
111.5388586
111.5388585
111.5388585
111.5388584
111.5388584
111.5388583
111.5388582
111.5388582
111.5388581
111.538858
111.5388579
111.5388578
111.5388577
111.5388575
111.5388574
111.5388572
111.5388571
111.5388569
111.5388567
111.5388566
111.5388564
111.5388562
111.538856
111.5388558
111.5388556
111.5388554
111.5388593
111.5388788
111.537741
111.538
111.538
111.5388483
111.5388483
111.5388483
111.5388483
111.5388483
111.5388482
111.5388482
111.5388482
111.5388482
111.5388481
111.5388481
111.538848
111.538848
111.5388479
111.5388479
111.5388478
111.5388477
111.5388476
111.5388475
111.5388474
111.5388473
111.5388472
111.5388471
111.538847
111.5388468
111.5388467
111.5388465
111.5388463
111.5388461
111.5388459
111.5388457
111.5388455
111.5388453
111.5388451
111.538845
111.5388495
111.5388693
111.5377773
111.538
111.538
111.5388378
111.5388378
111.5388378
111.5388378
111.5388378
111.5388378
111.5388377
111.5388377
111.5388377
111.5388377
111.5388376
111.5388376
111.5388375
111.5388375
111.5388374
111.5388373
111.5388373
111.5388372
111.5388371
111.538837
111.5388369
111.5388368
111.5388367
111.5388365
111.5388364
111.5388362
111.5388361
111.5388359
111.5388357
111.5388355
111.5388353
111.5388351
111.5388349
111.5388346
111.5388345
111.5388399
111.5388598
111.5378248
111.538
111.538
111.5388274
111.5388274
111.5388273
111.5388273
111.5388273
111.5388273
111.5388273
111.5388273
111.5388272
111.5388272
111.5388272
111.5388271
111.5388271
111.538827
111.538827
111.5388269
111.5388268
111.5388268
111.5388267
111.5388266
111.5388265
111.5388264
111.5388262
111.5388261
111.538826
111.5388258
111.5388256
111.5388255
111.5388253
111.5388251
111.5388249
111.5388246
111.5388244
111.5388242
111.5388241
111.5388304
111.53885
111.5378789
111.538
111.538
111.5388169
111.5388169
111.5388169
111.5388169
111.5388169
111.5388168
111.5388168
111.5388168
111.5388168
111.5388167
111.5388167
111.5388167
111.5388166
111.5388166
111.5388165
111.5388165
111.5388164
111.5388163
111.5388162
111.5388162
111.5388161
111.5388159
111.5388158
111.5388157
111.5388156
111.5388154
111.5388152
111.5388151
111.5388149
111.5388146
111.5388144
111.5388142
111.538814
111.5388137
111.5388136
111.538821
111.5388399
111.5379395
111.538
111.538
111.5388064
111.5388064
111.5388064
111.5388064
111.5388064
111.5388064
111.5388064
111.5388064
111.5388063
111.5388063
111.5388063
111.5388062
111.5388062
111.5388061
111.5388061
111.538806
111.538806
111.5388059
111.5388058
111.5388057
111.5388056
111.5388055
111.5388054
111.5388053
111.5388052
111.538805
111.5388048
111.5388047
111.5388045
111.5388042
111.538804
111.5388038
111.5388035
111.5388032
111.5388032
111.5388118
111.5388292
111.538
111.538
111.538
111.538796
111.538796
111.538796
111.538796
111.538796
111.5387959
111.5387959
111.5387959
111.5387959
111.5387959
111.5387958
111.5387958
111.5387957
111.5387957
111.5387957
111.5387956
111.5387955
111.5387955
111.5387954
111.5387953
111.5387952
111.5387951
111.538795
111.5387949
111.5387948
111.5387946
111.5387944
111.5387943
111.5387941
111.5387938
111.5387936
111.5387933
111.5387931
111.5387927
111.5387928
111.5388027
111.538818
111.538
111.538
111.538
111.5387855
111.5387855
111.5387855
111.5387855
111.5387855
111.5387855
111.5387855
111.5387855
111.5387854
111.5387854
111.5387854
111.5387854
111.5387853
111.5387853
111.5387852
111.5387852
111.5387851
111.5387851
111.538785
111.5387849
111.5387848
111.5387847
111.5387846
111.5387845
111.5387844
111.5387842
111.5387841
111.5387839
111.5387837
111.5387834
111.5387832
111.5387829
111.5387826
111.5387823
111.5387824
111.5387937
111.5388063
111.538
111.538
111.538
111.5387751
111.5387751
111.5387751
111.5387751
111.5387751
111.538775
111.538775
111.538775
111.538775
111.538775
111.5387749
111.5387749
111.5387749
111.5387748
111.5387748
111.5387748
111.5387747
111.5387747
111.5387746
111.5387745
111.5387744
111.5387744
111.5387743
111.5387741
111.538774
111.5387739
111.5387737
111.5387735
111.5387733
111.5387731
111.5387728
111.5387725
111.5387722
111.5387718
111.5387721
111.538785
111.5387942
111.538
111.538
111.538
111.5387646
111.5387646
111.5387646
111.5387646
111.5387646
111.5387646
111.5387646
111.5387646
111.5387646
111.5387645
111.5387645
111.5387645
111.5387645
111.5387644
111.5387644
111.5387643
111.5387643
111.5387643
111.5387642
111.5387641
111.5387641
111.538764
111.5387639
111.5387638
111.5387637
111.5387635
111.5387634
111.5387632
111.538763
111.5387627
111.5387624
111.5387621
111.5387617
111.5387613
111.5387618
111.5387765
111.538782
111.538
111.538
111.538
111.5387542
111.5387542
111.5387542
111.5387542
111.5387542
111.5387542
111.5387541
111.5387541
111.5387541
111.5387541
111.5387541
111.5387541
111.538754
111.538754
111.538754
111.5387539
111.5387539
111.5387538
111.5387538
111.5387537
111.5387537
111.5387536
111.5387535
111.5387534
111.5387533
111.5387532
111.538753
111.5387528
111.5387526
111.5387524
111.5387521
111.5387517
111.5387513
111.5387508
111.5387516
111.5387685
111.5387697
111.538
111.538
111.538
111.5387437
111.5387437
111.5387437
111.5387437
111.5387437
111.5387437
111.5387437
111.5387437
111.5387437
111.5387437
111.5387437
111.5387436
111.5387436
111.5387436
111.5387436
111.5387435
111.5387435
111.5387435
111.5387434
111.5387434
111.5387433
111.5387432
111.5387432
111.5387431
111.538743
111.5387428
111.5387427
111.5387425
111.5387423
111.538742
111.5387417
111.5387414
111.5387409
111.5387403
111.5387415
111.5387614
111.5387567
111.5379629
111.538
111.538
111.5387333
111.5387333
111.5387333
111.5387333
111.5387333
111.5387333
111.5387333
111.5387333
111.5387333
111.5387332
111.5387332
111.5387332
111.5387332
111.5387332
111.5387331
111.5387331
111.5387331
111.5387331
111.538733
111.538733
111.5387329
111.5387329
111.5387328
111.5387327
111.5387326
111.5387325
111.5387324
111.5387322
111.538732
111.5387317
111.5387314
111.538731
111.5387305
111.5387299
111.5387319
111.538756
111.5387417
111.5379378
111.538
111.538
111.5387229
111.5387229
111.5387229
111.5387229
111.5387228
111.5387228
111.5387228
111.5387228
111.5387228
111.5387228
111.5387228
111.5387228
111.5387228
111.5387228
111.5387227
111.5387227
111.5387227
111.5387227
111.5387226
111.5387226
111.5387226
111.5387225
111.5387225
111.5387224
111.5387223
111.5387222
111.5387221
111.5387219
111.5387217
111.5387215
111.5387212
111.5387208
111.5387202
111.5387195
111.538723
111.538754
111.5387197
111.5379628
111.538
111.538
111.5387124
111.5387124
111.5387124
111.5387124
111.5387124
111.5387124
111.5387124
111.5387124
111.5387124
111.5387124
111.5387124
111.5387124
111.5387124
111.5387123
111.5387123
111.5387123
111.5387123
111.5387123
111.5387123
111.5387122
111.5387122
111.5387122
111.5387121
111.5387121
111.538712
111.5387119
111.5387118
111.5387117
111.5387115
111.5387113
111.5387109
111.5387105
111.5387099
111.5387093
111.5387162
111.5387599
111.5386649
111.538
111.538
111.538
111.538702
111.538702
111.538702
111.538702
111.538702
111.538702
111.538702
111.538702
111.538702
111.538702
111.538702
111.5387019
111.5387019
111.5387019
111.5387019
111.5387019
111.5387019
111.5387019
111.5387019
111.5387019
111.5387018
111.5387018
111.5387018
111.5387018
111.5387017
111.5387016
111.5387016
111.5387014
111.5387013
111.5387011
111.5387008
111.5387003
111.5386996
111.5386996
111.5387158
111.5387773
111.5383916
111.538
111.538
111.538
111.5386915
111.5386915
111.5386915
111.5386915
111.5386915
111.5386915
111.5386915
111.5386915
111.5386915
111.5386915
111.5386915
111.5386915
111.5386915
111.5386915
111.5386915
111.5386915
111.5386915
111.5386915
111.5386915
111.5386915
111.5386915
111.5386915
111.5386915
111.5386914
111.5386914
111.5386914
111.5386913
111.5386912
111.5386911
111.5386909
111.5386907
111.5386902
111.5386894
111.5386929
111.5387322
111.5387035
111.53682
111.538
111.538
111.538
111.5386811
111.5386811
111.5386811
111.5386811
111.5386811
111.5386811
111.5386811
111.5386811
111.5386811
111.5386811
111.5386811
111.5386811
111.5386811
111.5386811
111.5386811
111.5386811
111.5386811
111.5386811
111.5386811
111.5386811
111.5386811
111.5386811
111.5386811
111.5386811
111.5386811
111.5386811
111.5386811
111.538681
111.538681
111.5386808
111.5386806
111.5386801
111.5386804
111.5386992
111.538737
111.5377377
111.5313377
111.538
111.538
111.538
111.5386707
111.5386707
111.5386707
111.5386707
111.5386707
111.5386707
111.5386707
111.5386707
111.5386707
111.5386707
111.5386707
111.5386707
111.5386707
111.5386708
111.5386708
111.5386708
111.5386708
111.5386708
111.5386708
111.5386709
111.5386709
111.5386709
111.5386709
111.538671
111.538671
111.538671
111.5386711
111.5386711
111.5386711
111.5386711
111.5386709
111.5386697
111.5386705
111.5386702
111.5377391
111.5334279
111.538
111.538
111.538
111.538
111.5383533
111.5383569
111.5383437
111.5383377
111.5383273
111.5383188
111.5383082
111.5382969
111.5382847
111.5382707
111.5382548
111.5382371
111.5382184
111.5381988
111.5381774
111.5381555
111.5381346
111.5381106
111.5380825
111.5380527
111.5380214
111.5379865
111.5379443
111.5378925
111.5378288
111.5377546
111.5376532
111.5374921
111.5372194
111.536774
111.5362859
111.5368608
111.538
111.538
111.538
111.538
111.538
111.538
111.538
111.538
111.538
111.538
111.538
111.538
111.538
111.538
111.538
111.538
111.538
111.538
111.538
111.538
111.538
111.538
111.538
111.538
111.538
111.538
111.538
111.538
111.538
111.538
111.538
111.538
111.538
111.538
111.538
111.538
111.538
111.538
111.538
111.538
111.538
111.538
111.538
111.538
111.538
111.538
111.538
111.538
111.538
111.538
111.538
111.538
111.538
111.538
111.538
111.538
111.538
111.538
111.538
111.538
111.538
111.538
111.538
111.538
111.538
111.538
111.538
111.538
111.538
111.538
111.538
111.538
111.538
111.538
111.538
111.538
111.538
111.538
111.538
111.538
111.538
111.538
111.538
111.538
111.538
111.538
111.538
111.538
111.538
111.538
111.538
111.538
111.538
111.538
111.538
111.538
111.538
111.538
111.538
111.538
111.538
111.538
111.538
111.538
111.538
111.538
111.538
111.538
111.538
111.538
111.538
111.538
111.538
111.538
111.538
111.538
111.538
111.538
111.538
111.538
111.538
111.538
111.538
111.538
111.538
111.538
111.538
111.538
111.7306676
111.7458082
111.7459989
111.7443803
111.7427283
111.7416124
111.740529
111.7395095
111.7384432
111.7373015
111.7360555
111.7346732
111.7331093
111.731284
111.7290968
111.7272435
111.7241336
111.7211352
111.7173736
111.7129703
111.7084974
111.7016338
111.6936631
111.6831813
111.6695099
111.6511681
111.6253218
111.5951292
111.5668074
111.5480903
111.5395996
111.538
111.538
111.538
111.538
111.538
111.538
111.544884
111.538
111.538
111.7779886
111.7790438
111.779039
111.7789685
111.7789026
111.7788577
111.7788151
111.7787753
111.7787334
111.7786891
111.7786409
111.7785873
111.778526
111.7784543
111.7783678
111.7782967
111.7781676
111.7780433
111.7778845
111.7776918
111.7774914
111.7771573
111.7767474
111.7761687
111.775344
111.7741417
111.7720559
111.7687198
111.7634085
111.7553877
111.7442103
111.7337445
111.7307709
111.7358147
111.7404835
111.7315762
111.7246303
111.779314
111.6220707
111.822753
111.7804375
111.7804433
111.7804363
111.7804336
111.7804325
111.780432
111.7804315
111.780431
111.7804304
111.7804298
111.7804291
111.7804281
111.7804271
111.7804258