/*--------------------------------*- C++ -*----------------------------------*\
| =========                 |                                                 |
| \\      /  F ield         | OpenFOAM: The Open Source CFD Toolbox           |
|  \\    /   O peration     | Version:  v1912                                 |
|   \\  /    A nd           | Website:  www.openfoam.com                      |
|    \\/     M anipulation  |                                                 |
\*---------------------------------------------------------------------------*/
FoamFile
{
    version     2.0;
    format      ascii;
    class       volVectorField;
    location    "0.3";
    object      U.gas_0;
}
// * * * * * * * * * * * * * * * * * * * * * * * * * * * * * * * * * * * * * //

dimensions      [0 1 -1 0 0 0 0];


internalField   nonuniform List<vector> 
4800
(
(0.0002137684912 1.992401314e-19 0.01243729668)
(0.0003673915882 1.503247782e-19 0.01243668491)
(0.0005780970625 -7.700850832e-18 0.01243595352)
(0.0007990216499 1.603053148e-20 0.01243487836)
(0.001025485952 2.295598751e-19 0.01243344496)
(0.001256795554 2.028708995e-19 0.012431646)
(0.00149319167 2.023638615e-19 0.01242947545)
(0.001735239016 2.280638799e-19 0.01242692694)
(0.001983646183 -7.51545855e-18 0.01242399323)
(0.002239201135 -3.54392357e-19 0.01242066602)
(0.002502745266 7.856721331e-18 0.01241693583)
(0.002775162731 8.435845029e-18 0.01241279187)
(0.003057376644 7.991881901e-19 0.01240822196)
(0.003350348759 9.624605091e-20 0.01240321236)
(0.003655081155 1.879054345e-19 0.01239774766)
(0.003972619236 2.017658424e-19 0.01239181053)
(0.004304055759 2.014235907e-19 0.01238538158)
(0.004650535716 2.141226088e-19 0.01237843911)
(0.005013262073 2.032692135e-19 0.0123709588)
(0.005393502331 2.009536369e-19 0.0123629135)
(0.005792595973 2.025507972e-19 0.01235427279)
(0.006211962802 2.022716234e-19 0.01234500275)
(0.006653112179 2.008576295e-19 0.01233506551)
(0.007117653221 1.982068496e-19 0.01232441889)
(0.007607305955 2.018442266e-19 0.01231301599)
(0.008123913521 1.962076651e-19 0.01230080475)
(0.008669455866 1.952750896e-19 0.01228772719)
(0.009246065984 2.071353225e-19 0.01227371825)
(0.009856051636 2.04295171e-19 0.01225870303)
(0.01050192981 2.027432916e-19 0.01224259055)
(0.01118649157 2.039275864e-19 0.01222525884)
(0.01191293982 1.95035205e-19 0.01220651933)
(0.01268520237 1.771566873e-19 0.01218603124)
(0.01350866527 7.600609622e-19 0.01216309655)
(0.01439189415 -5.022400646e-18 0.01213618716)
(0.01535004286 -3.193099465e-18 0.01210215672)
(0.0164289798 -5.562896204e-19 0.01204484551)
(0.01754496209 3.576376491e-19 0.01205190543)
(0.02221669715 2.670264281e-19 0.009188102651)
(0.01295937092 2.096559405e-19 0.02120999666)
(0.0002160824952 2.045081669e-19 0.02386377125)
(0.0003708980543 1.504514797e-19 0.02386225721)
(0.0005833014833 -7.932394747e-18 0.02386006059)
(0.0008060852482 1.195986845e-20 0.02385681998)
(0.001034500585 2.378690261e-19 0.02385249596)
(0.001267843392 2.090306546e-19 0.02384706817)
(0.001506359443 2.077537798e-19 0.02384051883)
(0.001750623459 2.274680068e-19 0.02383282872)
(0.002001356883 -7.740669421e-18 0.02382397592)
(0.002259362435 -3.668538485e-19 0.02381393522)
(0.002525497855 8.089267027e-18 0.02380267777)
(0.002800665171 8.685672912e-18 0.02379017074)
(0.003085806985 8.315938405e-19 0.02377637699)
(0.00338190633 9.976167347e-20 0.02376125465)
(0.003689988614 1.920074921e-19 0.02374475663)
(0.004011124965 2.075036024e-19 0.02372683006)
(0.004346436689 2.070361877e-19 0.02370741566)
(0.004697100702 2.067765008e-19 0.02368644697)
(0.005064355939 2.073195414e-19 0.0236638495)
(0.005449510788 2.057333019e-19 0.02363953979)
(0.005853951619 2.071718316e-19 0.02361342428)
(0.006279152511 2.056835653e-19 0.02358539823)
(0.00672668628 2.065390528e-19 0.02355534439)
(0.007198236933 2.040146747e-19 0.02352313168)
(0.007695613751 2.022045263e-19 0.0234886137)
(0.008220767258 2.095104665e-19 0.02345162701)
(0.008775807582 2.100193007e-19 0.02341198873)
(0.009363026396 2.052855925e-19 0.02336949242)
(0.009984924879 2.069677951e-19 0.02332389994)
(0.01064425324 2.120972328e-19 0.02327492342)
(0.01134407407 2.138251243e-19 0.02322218422)
(0.01208787657 2.030995019e-19 0.02316511742)
(0.01287980158 1.696023993e-19 0.02310274795)
(0.01372511655 7.662835102e-19 0.02303316033)
(0.0146313686 -5.153135581e-18 0.02295220658)
(0.01561142502 -3.265145253e-18 0.02285087854)
(0.01669590558 -5.616831097e-19 0.02268801041)
(0.01770470322 3.754100723e-19 0.0227748043)
(0.01943271959 2.153690981e-19 0.01616728486)
(0.01021708417 1.867414664e-19 0.04918860965)
(0.0002151803601 2.011288988e-19 0.02275203735)
(0.0003693781115 1.496885938e-19 0.02274993318)
(0.0005809034574 -7.931495283e-18 0.02274628919)
(0.0008027476011 1.282954806e-20 0.02274087531)
(0.001030202306 2.384831949e-19 0.02273364266)
(0.001262569402 2.083121035e-19 0.0227245613)
(0.00150009449 2.07970363e-19 0.02271360257)
(0.001743350342 2.271758239e-19 0.0227007346)
(0.001993055788 -7.736298418e-18 0.02268592067)
(0.002250010571 -3.637519805e-19 0.02266911847)
(0.002515069178 8.091122058e-18 0.02265027948)
(0.002789130101 8.682863739e-18 0.0226293485)
(0.003073132081 8.284133354e-19 0.02260626299)
(0.003368053921 9.860304902e-20 0.02258095244)
(0.003674916374 1.935642285e-19 0.02255333752)
(0.003994785402 2.071595959e-19 0.02252332911)
(0.004328776539 2.080695334e-19 0.02249082722)
(0.004678060248 1.955379762e-19 0.02245571964)
(0.005043868255 2.054271803e-19 0.02241788051)
(0.00542750089 2.089087922e-19 0.02237716853)
(0.005830335548 2.098025904e-19 0.02233342511)
(0.006253836348 2.04501349e-19 0.02228647224)
(0.006699565085 2.034600654e-19 0.02223611019)
(0.007169193582 2.000051796e-19 0.02218211502)
(0.007664517548 2.072372387e-19 0.02212423588)
(0.008187471969 2.069171637e-19 0.02206219183)
(0.008740148077 2.069748828e-19 0.0219956678)
(0.009324811919 2.099791153e-19 0.02192430826)
(0.009943924285 2.124291843e-19 0.02184770575)
(0.01060016135 2.062999107e-19 0.02176537727)
(0.01129643369 1.996283809e-19 0.02167671302)
(0.01203589577 1.945647621e-19 0.02158086192)
(0.01282192015 2.179093217e-19 0.02147647407)
(0.01365795026 7.371461458e-19 0.02136111499)
(0.01454689034 -5.173260271e-18 0.02122988099)
(0.01548862626 -3.203895624e-18 0.02107272905)
(0.01647299066 -4.678843215e-19 0.02084502173)
(0.01734502111 3.088848692e-19 0.02103451046)
(0.01767141557 3.256092386e-19 0.01349398299)
(0.008703774942 1.668278997e-19 0.06264125131)
(0.0002137732027 2.001084471e-19 0.02249733545)
(0.0003669855404 1.489691448e-19 0.02249462558)
(0.0005771470165 -7.929916953e-18 0.0224895645)
(0.0007975517905 1.408512206e-20 0.02248199305)
(0.001023531855 2.354462303e-19 0.02247186607)
(0.001254397498 2.083486466e-19 0.02245914698)
(0.001490394692 2.07669386e-19 0.02244379731)
(0.001732093778 2.261306571e-19 0.022425773)
(0.001980209915 -7.73802881e-18 0.02240502286)
(0.002235538479 -3.584631474e-19 0.02238148769)
(0.002498929058 8.095891059e-18 0.02235509962)
(0.002771274749 8.682400315e-18 0.02232578133)
(0.003053508366 8.216601083e-19 0.02229344529)
(0.003346602176 1.012401619e-19 0.02225799275)
(0.003651569682 1.936712815e-19 0.02221931263)
(0.003969468769 2.078575452e-19 0.02217728017)
(0.004301405933 2.074911015e-19 0.02213175536)
(0.004648541482 2.069988276e-19 0.02208258108)
(0.005012095702 2.079306471e-19 0.02202958097)
(0.005393356043 2.081595936e-19 0.02197255697)
(0.00579368539 2.111118132e-19 0.02191128656)
(0.006214531525 2.037492886e-19 0.02184551973)
(0.00665743785 2.064237149e-19 0.02177497569)
(0.007124055395 2.035265865e-19 0.02169933927)
(0.007616156099 2.046341901e-19 0.02161825718)
(0.008135647126 2.084166121e-19 0.02153133385)
(0.008684585559 2.099507061e-19 0.02143812671)
(0.009265192071 2.131480462e-19 0.02133813984)
(0.009879860339 2.073088447e-19 0.02123081417)
(0.01053115482 2.072201331e-19 0.02111550943)
(0.01122177993 2.03200398e-19 0.02099146793)
(0.01195448063 1.899719457e-19 0.02085773901)
(0.01273177835 1.888287166e-19 0.020713021)
(0.01355530508 7.555696395e-19 0.02055533856)
(0.01442413017 -5.257360007e-18 0.02038141054)
(0.01533063093 -3.114222175e-18 0.02018621835)
(0.01624778776 -3.916288274e-19 0.01994036758)
(0.01706108518 3.393360536e-19 0.02014366441)
(0.01695575957 3.165182778e-19 0.01276790473)
(0.008149813357 1.641652403e-19 0.07565422513)
(0.0002119050491 2.002291212e-19 0.02219428414)
(0.0003637898031 1.493157183e-19 0.02219096407)
(0.0005721253714 -7.931648159e-18 0.02218450347)
(0.0007906124165 1.462092793e-20 0.02217479196)
(0.001014629231 2.382828958e-19 0.02216178977)
(0.001243495545 2.08300532e-19 0.02214545528)
(0.001477457507 2.077894016e-19 0.02212574101)
(0.001717082233 2.25008933e-19 0.02210259117)
(0.001963080066 -7.735621182e-18 0.02207594044)
(0.002216240606 -3.517188727e-19 0.02204571311)
(0.002477406935 8.098922713e-18 0.02201182226)
(0.002747464956 8.680919623e-18 0.02197416892)
(0.003027339547 8.153809778e-19 0.02193264102)
(0.00331799419 1.012212884e-19 0.02188711217)
(0.003620432622 1.942189571e-19 0.02183744026)
(0.003935701807 2.080562186e-19 0.02178346574)
(0.004264895967 2.07396478e-19 0.02172500957)
(0.004609161557 2.076301924e-19 0.02166187086)
(0.004969703191 2.070991827e-19 0.02159382409)
(0.005347790546 2.063521829e-19 0.02152061592)
(0.005744766348 2.070945676e-19 0.02144196161)
(0.006162055504 2.043382692e-19 0.02135754107)
(0.006601175438 2.046098163e-19 0.02126699463)
(0.007063747598 2.05124806e-19 0.02116991847)
(0.007551509969 2.045103404e-19 0.02106586006)
(0.008066330141 2.096982452e-19 0.0209543135)
(0.008610217712 2.095462593e-19 0.02083471519)
(0.009185333555 2.114197217e-19 0.0207064397)
(0.009793990634 2.077050995e-19 0.02056879628)
(0.01043863501 2.013401403e-19 0.02042102603)
(0.01112178274 1.948608221e-19 0.0202623008)
(0.01184586049 2.061868325e-19 0.02009172689)
(0.01261283862 1.863672216e-19 0.01990836633)
(0.01342342809 7.443634558e-19 0.01971131764)
(0.01427540697 -5.402996932e-18 0.01949998121)
(0.01516068575 -3.033702836e-18 0.01927539073)
(0.01605395891 -2.947672834e-19 0.019026831)
(0.01675783041 4.082530737e-19 0.01916150739)
(0.01638153939 2.340650233e-19 0.01237250173)
(0.007781589855 1.541474533e-19 0.08817892014)
(0.0002095722966 2.000726835e-19 0.02189721107)
(0.0003597936362 1.48703746e-19 0.02189328698)
(0.0005658454387 -7.932124735e-18 0.02188544205)
(0.0007819377301 1.741778355e-20 0.02187360991)
(0.001003504168 2.345647529e-19 0.02185775606)
(0.001229875161 2.083906818e-19 0.02183783452)
(0.001461296736 2.079475424e-19 0.02181378939)
(0.001698331919 2.235976786e-19 0.0217855536)
(0.001941685059 -7.743944593e-18 0.02175304811)
(0.002192138598 -3.431730709e-19 0.02171618107)
(0.002450527544 8.100893575e-18 0.021674847)
(0.002717728855 8.675404124e-18 0.02162892579)
(0.002994657533 8.066876354e-19 0.02157828148)
(0.003282266121 1.034834356e-19 0.02152276085)
(0.003581546163 1.947091788e-19 0.02146219169)
(0.003893530961 2.080853461e-19 0.02139638076)
(0.00421929935 2.07844176e-19 0.02132511135)
(0.004559980375 2.065903351e-19 0.02124814031)
(0.004916758882 2.069009302e-19 0.02116519477)
(0.005290882068 2.065376701e-19 0.02107596814)
(0.005683667057 2.076078903e-19 0.02098011583)
(0.006096509614 2.050236612e-19 0.02087725031)
(0.006530893991 2.080765667e-19 0.02076693604)
(0.006988403877 2.047187882e-19 0.02064868412)
(0.007470734198 2.060190583e-19 0.02052194692)
(0.007979703215 2.095669617e-19 0.02038611343)
(0.008517263524 2.089674894e-19 0.0202405059)
(0.009085509194 2.130455477e-19 0.02008437934)
(0.009686673487 2.02040096e-19 0.01991692654)
(0.010323106 1.971859623e-19 0.01973729454)
(0.01099720739 2.078756846e-19 0.01954462433)
(0.01171127895 2.049976402e-19 0.01933813981)
(0.0124672067 1.841839032e-19 0.0191173434)
(0.01326583701 7.077431142e-19 0.01888244155)
(0.01410581205 -5.480781775e-18 0.01863524439)
(0.0149820197 -2.896381209e-18 0.01838112707)
(0.01587675916 -2.203655786e-19 0.01812478191)
(0.01667822585 4.046069011e-19 0.01812984987)
(0.01624653462 2.869638087e-19 0.01219909612)
(0.007644717413 1.537702408e-19 0.1004675428)
(0.0002067781 2.004787637e-19 0.02160356599)
(0.0003550044709 1.491322795e-19 0.02159904733)
(0.0005583192112 -7.932561989e-18 0.02158983387)
(0.0007715434558 2.113819468e-20 0.02157590308)
(0.0009901761328 2.342164102e-19 0.02155722557)
(0.001213559827 2.078071663e-19 0.02153375133)
(0.001441940152 2.074960568e-19 0.02150541646)
(0.001675875165 2.221105427e-19 0.02147214304)
(0.001916062062 -7.747865747e-18 0.02143383871)
(0.002163274774 -3.319261226e-19 0.02139039595)
(0.002418338721 8.112421369e-18 0.02134169127)
(0.002682120247 8.668676751e-18 0.02128758406)
(0.00295552263 7.965420944e-19 0.02122791526)
(0.003239485421 1.045026734e-19 0.02116250578)
(0.00353498568 1.947658067e-19 0.02109115448)
(0.003843040462 2.079969636e-19 0.02101363581)
(0.004164710272 2.076082177e-19 0.02092969699)
(0.004501103374 2.070045491e-19 0.02083905457)
(0.004853380984 2.07514744e-19 0.02074139051)
(0.005222763365 2.061456608e-19 0.02063634758)
(0.005610536921 2.064352069e-19 0.0205235242)
(0.006018062391 2.028900164e-19 0.02040246876)
(0.006446784197 2.04215081e-19 0.02027267362)
(0.006898240849 2.081001242e-19 0.02013356895)
(0.007374076275 2.065948434e-19 0.01998451679)
(0.007876051528 2.085161561e-19 0.01982480631)
(0.008406055799 2.084426181e-19 0.01965365152)
(0.008966114512 2.138377094e-19 0.01947019411)
(0.0095583905 2.022179701e-19 0.01927351631)
(0.01018517104 2.073280959e-19 0.01906267339)
(0.0108488284 2.059451253e-19 0.01883676513)
(0.01155173416 1.980749077e-19 0.01859508445)
(0.01229609804 1.814503395e-19 0.01833742089)
(0.01308369305 7.065040073e-19 0.01806467287)
(0.01391540158 -5.635537331e-18 0.0177800578)
(0.01479070931 -2.796748202e-18 0.01749117438)
(0.01569833859 -1.301369624e-19 0.01721557003)
(0.01645975049 3.581983299e-19 0.017068332)
(0.01587115478 2.617481543e-19 0.01216572072)
(0.007407618571 1.971154697e-19 0.1125460627)
(0.000203527025 2.006036964e-19 0.02131418897)
(0.0003494307358 1.484480523e-19 0.02130908653)
(0.0005495599917 -7.932293753e-18 0.0212985218)
(0.0007594475837 2.32827092e-20 0.02128251719)
(0.0009746678239 2.338762262e-19 0.02126104839)
(0.001194577128 2.080527693e-19 0.02123406163)
(0.001419420467 2.078278346e-19 0.02120148533)
(0.001649750083 2.198981422e-19 0.02116323109)
(0.00188625489 -7.752546195e-18 0.02111919367)
(0.002129699013 -3.209916417e-19 0.02106925041)
(0.002380896847 8.122949527e-18 0.02101326039)
(0.002640702542 8.666374827e-18 0.02095106324)
(0.002910005922 7.84347442e-19 0.02088247777)
(0.003189731633 1.068711938e-19 0.02080730011)
(0.003480840118 1.959136838e-19 0.02072530153)
(0.003784329789 2.082754151e-19 0.02063622581)
(0.004101240094 2.073637759e-19 0.02053978602)
(0.004432655402 2.169674752e-19 0.02043566068)
(0.00477970971 2.080305962e-19 0.02032348919)
(0.005143592222 2.054292524e-19 0.0202028667)
(0.005525553885 2.060839888e-19 0.02007333815)
(0.005926915003 2.043125954e-19 0.01993439173)
(0.006349074054 2.079021322e-19 0.01978545204)
(0.006793517681 2.083876468e-19 0.01962587307)
(0.007261831791 2.070946842e-19 0.01945493153)
(0.007755713584 2.090634397e-19 0.01927182172)
(0.008276983938 2.092103188e-19 0.01907565363)
(0.008827599209 2.127791745e-19 0.01886545755)
(0.009409661094 1.984624662e-19 0.01864020103)
(0.01002542303 1.922503615e-19 0.01839882927)
(0.01067729289 2.12417311e-19 0.01814034946)
(0.01136783757 1.793556462e-19 0.01786399735)
(0.0120998115 1.775877705e-19 0.01756955794)
(0.01287627304 6.617911571e-19 0.01725797831)
(0.01370090826 -5.721925876e-18 0.01693255106)
(0.01457858414 -2.656391097e-18 0.01660094247)
(0.0155116003 -5.807463171e-20 0.016288568)
(0.01628290767 3.431803527e-19 0.01596656272)
(0.01550971953 2.572892938e-19 0.01224263993)
(0.007145373061 1.389589377e-19 0.1243986978)
(0.0001998246 2.004705416e-19 0.02102971039)
(0.0003430820513 1.469594459e-19 0.02102403567)
(0.0005395828689 -7.934736642e-18 0.02101213869)
(0.0007456707546 2.57708458e-20 0.0209940881)
(0.0009570055061 2.35746754e-19 0.02096986477)
(0.00117295912 2.07969516e-19 0.02093941138)
(0.001393775751 2.078961841e-19 0.02090264893)
(0.00162000103 2.175285213e-19 0.02085947894)
(0.001852314523 -7.753338501e-18 0.02080978372)
(0.002091469315 -3.066441729e-19 0.020753426)
(0.002338267436 8.129021181e-18 0.02069024811)
(0.002593549379 8.661986744e-18 0.02062007079)
(0.002858189916 7.714096006e-19 0.02054269169)
(0.003133097037 1.083629701e-19 0.02045788344)
(0.003419212631 1.969542102e-19 0.02036539127)
(0.003717514285 2.083711593e-19 0.0202649301)
(0.004029017931 2.074495253e-19 0.02015618106)
(0.004354781224 2.064794894e-19 0.02003878716)
(0.004695907699 2.056999325e-19 0.01991234831)
(0.005053551746 2.056213246e-19 0.01977641547)
(0.005428924539 2.055986198e-19 0.01963048405)
(0.00582330103 2.045421953e-19 0.0194739865)
(0.006238028195 2.074327949e-19 0.01930628454)
(0.006674534682 2.089658325e-19 0.01912666115)
(0.007134341951 2.065247357e-19 0.01893431291)
(0.007619077077 2.092947473e-19 0.01872834383)
(0.008130487485 2.106811801e-19 0.01850776267)
(0.008670458046 2.119352848e-19 0.01827148679)
(0.009241032048 2.041880769e-19 0.01801835819)
(0.009844439989 1.997837012e-19 0.01774718147)
(0.0104831463 1.998537912e-19 0.01745680021)
(0.01115993868 2.049582359e-19 0.0171462402)
(0.01187811701 1.926154651e-19 0.0168149664)
(0.01264191441 6.567282812e-19 0.0164633355)
(0.01345746977 -5.928626261e-18 0.01609340623)
(0.01433524522 -2.534730989e-18 0.0157102147)
(0.01529246806 2.549821519e-20 0.01533753164)
(0.01619443669 3.757315892e-19 0.01480688301)
(0.01533727867 2.391082972e-19 0.01250394661)
(0.006968219036 1.286498531e-19 0.1359853441)
(0.0001956771232 2.010800435e-19 0.02075076438)
(0.0003359692251 1.459719536e-19 0.02074452944)
(0.0005284047818 -7.935957048e-18 0.02073132106)
(0.0007302362552 3.021234523e-20 0.0207112554)
(0.0009372189326 2.35307455e-19 0.02068431864)
(0.001148742184 2.083080781e-19 0.02065045006)
(0.001365049243 2.082517909e-19 0.02060956356)
(0.001586678383 2.151347785e-19 0.02056155088)
(0.001814298821 -7.760666879e-18 0.02050628235)
(0.002048651466 -2.910660261e-19 0.02044360666)
(0.002290524733 8.139254074e-18 0.0203733501)
(0.002540744126 8.658257623e-18 0.02029531543)
(0.002800167929 7.574166149e-19 0.02020928026)
(0.00306968592 1.115864595e-19 0.02011499508)
(0.003350219707 1.986426156e-19 0.02001218074)
(0.003642724133 2.094600099e-19 0.01990052535)
(0.003948189442 2.0845461e-19 0.01977968048)
(0.004267644095 2.080823782e-19 0.01964925652)
(0.0046021583 2.066782498e-19 0.0195088172)
(0.00495284832 2.076642939e-19 0.01935787318)
(0.005320881704 2.093268248e-19 0.01919587472)
(0.005707483601 2.081013128e-19 0.01902220352)
(0.006113944416 2.08607282e-19 0.01883616378)
(0.006541629121 2.127427992e-19 0.01863697311)
(0.006991988501 2.113568402e-19 0.01842375344)
(0.007466572951 2.137670755e-19 0.0181955231)
(0.007967049778 2.142322292e-19 0.01795119186)
(0.008495225785 2.182137066e-19 0.01768956138)
(0.009053078813 2.118825923e-19 0.01740933539)
(0.009642805974 2.075574739e-19 0.01710914594)
(0.01026690479 2.054606671e-19 0.01678760539)
(0.01092832102 2.138611402e-19 0.01644339747)
(0.01163073111 2.013131119e-19 0.01607542183)
(0.01237909948 6.368913032e-19 0.01568300418)
(0.01318082934 -6.046609654e-18 0.0152661532)
(0.01404848258 -2.389239324e-18 0.01482532988)
(0.01500671751 1.006056932e-19 0.01437426295)
(0.01579837291 3.712159186e-19 0.01365297162)
(0.01470694557 2.531912608e-19 0.01295080174)
(0.006598201395 1.050286825e-19 0.1472348572)
(0.0001910916056 1.973205228e-19 0.02047797505)
(0.0003281042532 1.431655869e-19 0.02047119237)
(0.0005160445417 -7.937437319e-18 0.02045669534)
(0.0007131700026 3.621724811e-20 0.02043464857)
(0.0009153412771 2.323819749e-19 0.02040504371)
(0.001121966925 2.109119451e-19 0.02036781684)
(0.001333289194 2.115953128e-19 0.02032287496)
(0.00154983833 2.161585232e-19 0.02027010038)
(0.001772272276 -7.771659378e-18 0.0202093519)
(0.002001318714 -2.699184172e-19 0.02014046475)
(0.002237751318 8.158343086e-18 0.02006324995)
(0.002482379408 8.654751929e-18 0.01997749316)
(0.002736043521 7.492266456e-19 0.01988295317)
(0.002999613862 1.210344014e-19 0.01977935978)
(0.003273990295 2.062617085e-19 0.01966641126)
(0.003560103287 2.176826703e-19 0.01954377107)
(0.003858915547 2.171841508e-19 0.01941106383)
(0.004171424234 2.171278528e-19 0.01926787038)
(0.004498663791 2.207040705e-19 0.01911372194)
(0.004841709496 2.173482436e-19 0.01894809309)
(0.005201681914 2.169819059e-19 0.01877039381)
(0.005579752438 2.200316102e-19 0.01857996044)
(0.005977150275 2.206560508e-19 0.01837604563)
(0.006395171328 2.134958677e-19 0.0181578078)
(0.006835189473 2.267522305e-19 0.01792430026)
(0.007298671158 2.270830676e-19 0.01767446082)
(0.007787194865 2.287693716e-19 0.01740710322)
(0.008302478058 2.306179898e-19 0.01712091187)
(0.008846416479 2.269093725e-19 0.0168144425)
(0.009421145071 2.275867878e-19 0.0164861307)
(0.01002913804 2.324174105e-19 0.01613431055)
(0.01067338128 2.261525829e-19 0.0157572415)
(0.01135767703 2.363040923e-19 0.01535312968)
(0.0120871845 6.081191523e-19 0.01492010269)
(0.01286935978 -6.123656765e-18 0.01445601395)
(0.01371525396 -2.249647389e-18 0.01395734944)
(0.01464001251 2.101118129e-19 0.01342913228)
(0.01531744251 3.511052647e-19 0.01254716187)
(0.01402119479 2.862372868e-19 0.01353194922)
(0.006204674896 6.527700073e-20 0.1580819684)
(0.000186075756 2.004229926e-19 0.02021195616)
(0.000319500318 1.442615583e-19 0.02020463866)
(0.0005025228278 -7.939309393e-18 0.02018887756)
(0.0006945005097 3.794844608e-20 0.02016488671)
(0.0008914090602 2.337395224e-19 0.02013266326)
(0.001092678044 2.078830527e-19 0.02009214025)
(0.001298548713 2.081533511e-19 0.02004321803)
(0.001509542671 2.086990473e-19 0.01998576981)
(0.001726305738 -7.77512228e-18 0.01991964327)
(0.001949551426 -2.569393594e-19 0.01984466075)
(0.002180037668 8.163353426e-18 0.01976061876)
(0.002418556566 8.641937936e-18 0.01966728685)
(0.002665929825 7.230812902e-19 0.01956440615)
(0.002923006948 1.157503606e-19 0.01945168732)
(0.003190664849 1.989217198e-19 0.01932880791)
(0.003469808307 2.083845177e-19 0.01919540899)
(0.003761371023 2.071397384e-19 0.01905109097)
(0.00406631716 2.064581071e-19 0.0188954085)
(0.004385643402 2.062003011e-19 0.01872786414)
(0.00472038168 2.067488729e-19 0.01854790099)
(0.00507160273 2.062952433e-19 0.01835489402)
(0.005440420754 2.043080366e-19 0.01814814014)
(0.005827999584 2.06394915e-19 0.01792684697)
(0.006235560924 2.049876935e-19 0.01769012062)
(0.006664395396 2.070838922e-19 0.01743695271)
(0.007115877486 2.099203528e-19 0.01716620687)
(0.007591486226 2.088986307e-19 0.01687660556)
(0.008092834589 2.108348373e-19 0.01656671777)
(0.008621712592 2.042017813e-19 0.01623494804)
(0.009180152799 2.028927824e-19 0.01587952538)
(0.009770533181 2.023594936e-19 0.01549848724)
(0.01039574336 2.034017522e-19 0.01508964557)
(0.01105945653 1.991163627e-19 0.01465050207)
(0.01176656728 5.697932859e-19 0.01417804505)
(0.01252387089 -6.317999651e-18 0.01366828845)
(0.01334090362 -2.108479322e-18 0.01311508841)
(0.01423058442 1.82832579e-19 0.01251980844)
(0.01478671492 3.285424315e-19 0.01149765519)
(0.0132810792 2.298524289e-19 0.01424481956)
(0.005786445886 1.020282905e-19 0.1684812259)
(0.0001806379616 1.99423674e-19 0.01995331017)
(0.000310171771 1.430494189e-19 0.01994547116)
(0.0004878621614 -7.941204297e-18 0.01992847241)
(0.0006742588359 4.28933873e-20 0.01990257746)
(0.0008654620646 2.324766392e-19 0.01986778901)
(0.001060924224 2.07414844e-19 0.01982403717)
(0.001260885594 2.077528276e-19 0.01977121583)
(0.001465858586 2.047097021e-19 0.0197091894)
(0.001676476136 -7.784120264e-18 0.01963779485)
(0.001893436741 -2.380592699e-19 0.01955684221)
(0.002117481728 8.174847351e-18 0.01946611419)
(0.0023493851 8.637406569e-18 0.01936536518)
(0.002589948858 7.039763502e-19 0.0192543199)
(0.00284000091 1.172491057e-19 0.01913267136)
(0.003100394301 1.982331994e-19 0.01900007828)
(0.00337200714 2.069616448e-19 0.01885616169)
(0.003655743031 2.058597968e-19 0.0187005007)
(0.003952531897 2.065762924e-19 0.01853262718)
(0.004263331185 2.055312795e-19 0.01835201922)
(0.00458912765 2.065624286e-19 0.01815809331)
(0.00493093991 2.050438736e-19 0.01795019504)
(0.005289822081 2.029396634e-19 0.01772758835)
(0.005666868913 2.045940872e-19 0.017489443)
(0.006063223111 2.024108341e-19 0.01723482059)
(0.006480085716 2.028963108e-19 0.0169626591)
(0.006918730721 2.058575545e-19 0.01667175603)
(0.007380525806 2.061107201e-19 0.01636075)
(0.007866962015 2.099268761e-19 0.01602810095)
(0.008379696657 1.995505412e-19 0.01567206739)
(0.008920616095 1.941362815e-19 0.01529067704)
(0.009491928345 1.901415115e-19 0.01488168119)
(0.01009630089 1.959201798e-19 0.01444247369)
(0.01073706592 1.930172786e-19 0.01396993219)
(0.01141851661 5.272890657e-19 0.01346010566)
(0.01214632256 -6.434462752e-18 0.01290761684)
(0.01292796833 -1.962760894e-18 0.01230447927)
(0.01377352803 2.174573758e-19 0.01164880094)
(0.01420532439 3.054709623e-19 0.01052123764)
(0.01250938428 2.005178617e-19 0.01507318751)
(0.005360813593 7.238425211e-20 0.1784000645)
(0.0001747872886 1.996600389e-19 0.01970262728)
(0.0003001341271 1.404269611e-19 0.0196942804)
(0.0004720868835 -7.943298656e-18 0.01967607223)
(0.0006524785446 4.722969543e-20 0.01964831611)
(0.0008375432618 2.293571058e-19 0.01961102021)
(0.00102675801 2.050142423e-19 0.01956411183)
(0.001220362155 2.050971695e-19 0.01950747858)
(0.001418858428 1.977884625e-19 0.0194409763)
(0.001622866196 -7.79692151e-18 0.01936443165)
(0.001833068204 -2.214587802e-19 0.01927764285)
(0.002050188437 8.187627346e-18 0.01918037951)
(0.002274982097 8.621011124e-18 0.01907238179)
(0.002508230805 6.786765756e-19 0.01895335915)
(0.002750740239 1.157953276e-19 0.01882298845)
(0.003003338953 1.920736025e-19 0.01868091149)
(0.003266877769 1.999011215e-19 0.01852673165)
(0.003542229527 1.981202858e-19 0.01836000964)
(0.003830289127 2.058506056e-19 0.01818025814)
(0.004131973831 1.936382207e-19 0.01798693509)
(0.004448223988 1.921800336e-19 0.01777943552)
(0.004780004441 1.941132894e-19 0.01755708172)
(0.005128306932 1.929067439e-19 0.0173191116)
(0.005494153984 1.924409402e-19 0.01706466495)
(0.005878604943 2.012334658e-19 0.0167927676)
(0.006282765172 1.941839319e-19 0.01650231342)
(0.006707799582 1.927762309e-19 0.01619204378)
(0.007154952213 1.941713969e-19 0.01586052408)
(0.007625574235 1.874275758e-19 0.01550611653)
(0.008121163446 1.923580924e-19 0.015126947)
(0.00864341918 1.853502027e-19 0.01472086093)
(0.009194316697 1.846357606e-19 0.01428535712)
(0.009776204639 1.807874077e-19 0.01381747839)
(0.01039192799 1.934477746e-19 0.01331361672)
(0.01104496785 4.571822174e-19 0.01276915781)
(0.01173959296 -6.513428323e-18 0.01217784264)
(0.01248095281 -1.849521747e-18 0.01153063561)
(0.01327605518 2.500763811e-19 0.0108228122)
(0.01358473857 2.522584195e-19 0.009621204727)
(0.01172525161 2.395682144e-19 0.01599394989)
(0.0049397024 6.593974522e-20 0.1878268562)
(0.0001685334683 2.004360059e-19 0.01946048442)
(0.0002894040411 1.405994543e-19 0.01945164369)
(0.0004552231267 -7.945404946e-18 0.0194322561)
(0.0006291956555 5.346282647e-20 0.01940268457)
(0.0008076987451 2.30431673e-19 0.01936294269)
(0.0009902357216 2.07708638e-19 0.01931295494)
(0.001177045115 2.083894734e-19 0.01925260278)
(0.00136861954 1.976956112e-19 0.01918173372)
(0.001565564196 -7.803025186e-18 0.01910016442)
(0.001768545434 -1.943168772e-19 0.01900768176)
(0.001978269299 8.207273316e-18 0.01890404285)
(0.002195471656 8.620110689e-18 0.01878897446)
(0.002420913293 6.646696203e-19 0.0186621719)
(0.00265537728 1.251893797e-19 0.01852329735)
(0.002899667371 2.009873534e-19 0.01837197748)
(0.003154606854 2.084734344e-19 0.0182078004)
(0.003421037586 2.073955072e-19 0.01803031136)
(0.003699819187 2.06893657e-19 0.0178390075)
(0.003991828355 2.066504274e-19 0.01763333107)
(0.004297958434 2.091865162e-19 0.01741266102)
(0.00461911951 2.0811432e-19 0.01717630274)
(0.004956239386 2.068119613e-19 0.01692347559)
(0.005310265908 2.094402417e-19 0.01665329801)
(0.005682171352 2.122311825e-19 0.01636476991)
(0.006072959853 2.070108323e-19 0.01605675204)
(0.006483679081 2.103063765e-19 0.01572794188)
(0.006915437612 2.10110982e-19 0.01537684533)
(0.007369429803 2.124322513e-19 0.01500174286)
(0.007846969917 2.046164206e-19 0.01460064795)
(0.008349536746 2.00841357e-19 0.01417125289)
(0.008878827435 1.976561736e-19 0.01371085176)
(0.009436813308 2.071335521e-19 0.0132162229)
(0.01002578212 2.087914834e-19 0.01268343495)
(0.01064832714 4.700403871e-19 0.0121075123)
(0.01130723554 -6.659161382e-18 0.01148184654)
(0.01200519371 -1.667145473e-18 0.01079716501)
(0.0127456091 2.872921504e-19 0.01004655138)
(0.01293080669 3.003722813e-19 0.008799250871)
(0.01093080191 2.134342714e-19 0.01698230898)
(0.004523596155 5.060394976e-20 0.1967585515)
(0.0001618868878 2.002975299e-19 0.01922744434)
(0.0002779992998 1.381105032e-19 0.01921812412)
(0.0004372987882 -7.947619788e-18 0.01919758885)
(0.0006044485996 5.96754896e-20 0.01916625054)
(0.0007759776547 2.272984789e-19 0.01912412795)
(0.0009514173416 2.076101736e-19 0.01907114278)
(0.001131005446 2.086594727e-19 0.01900717041)
(0.001315224073 1.933386013e-19 0.01893205016)
(0.001504663723 -7.816427137e-18 0.01884558895)
(0.001699973821 -1.720252098e-19 0.01874756267)
(0.001901841993 8.222193699e-18 0.01863771649)
(0.002110984394 8.610303199e-18 0.01851576449)
(0.002328140738 6.429053823e-19 0.01838138886)
(0.002554071377 1.30279024e-19 0.01823423838)
(0.002789555289 2.012196051e-19 0.01807392641)
(0.003035388375 2.087003613e-19 0.01790002798)
(0.003292381756 2.071430334e-19 0.01771207585)
(0.003561360055 2.069852945e-19 0.01750955523)
(0.003843159656 2.063822366e-19 0.01729189725)
(0.004138627004 2.027980152e-19 0.01705847033)
(0.004448617229 2.059229601e-19 0.01680856963)
(0.004773993448 2.064497287e-19 0.01654140394)
(0.00511562723 2.057232957e-19 0.01625607973)