/*--------------------------------*- C++ -*----------------------------------*\
| =========                 |                                                 |
| \\      /  F ield         | OpenFOAM: The Open Source CFD Toolbox           |
|  \\    /   O peration     | Version:  v1912                                 |
|   \\  /    A nd           | Website:  www.openfoam.com                      |
|    \\/     M anipulation  |                                                 |
\*---------------------------------------------------------------------------*/
FoamFile
{
    version     2.0;
    format      ascii;
    class       volVectorField;
    location    "0.3";
    object      U.gas;
}
// * * * * * * * * * * * * * * * * * * * * * * * * * * * * * * * * * * * * * //

dimensions      [0 1 -1 0 0 0 0];


internalField   nonuniform List<vector> 
4800
(
(0.0002155128743 2.003653028e-19 0.01243605405)
(0.000370394031 1.51211222e-19 0.01243543435)
(0.0005828175473 -7.73521556e-18 0.01243470156)
(0.0008055282861 1.326582337e-20 0.01243362558)
(0.001033801917 2.311088351e-19 0.01243219159)
(0.001266931378 2.038613446e-19 0.01243039227)
(0.001505152365 2.032691445e-19 0.01242822176)
(0.001749026057 2.305482716e-19 0.01242567392)
(0.001999257867 -7.545330685e-18 0.0124227418)
(0.002256632232 -3.662964289e-19 0.01241941748)
(0.002521986271 7.885840018e-18 0.01241569191)
(0.002796198809 8.47857121e-18 0.01241155482)
(0.003080186291 8.131910297e-19 0.01240699462)
(0.003374902177 9.533579713e-20 0.0124019983)
(0.003681338301 1.883593389e-19 0.01239655127)
(0.004000527513 2.02805682e-19 0.01239063721)
(0.004333547277 2.023870617e-19 0.01238423791)
(0.004681524067 2.151355027e-19 0.01237733304)
(0.005045638521 2.042599385e-19 0.01236989993)
(0.005427131322 2.019083323e-19 0.0123619133)
(0.005827309835 2.034524071e-19 0.01235334499)
(0.006247555491 2.031255818e-19 0.0123441637)
(0.006689331895 2.016663092e-19 0.01233433465)
(0.007154193702 1.989741444e-19 0.0123238193)
(0.007643796205 2.026923427e-19 0.01231257506)
(0.008159905736 1.970254509e-19 0.01230055489)
(0.008704411272 1.960361557e-19 0.01228770674)
(0.009279338354 2.08225057e-19 0.0122739724)
(0.009886868323 2.053301181e-19 0.01225928484)
(0.01052937035 2.037119918e-19 0.01224356188)
(0.0112094644 2.049633906e-19 0.01222669103)
(0.01193015867 1.960500768e-19 0.01220849314)
(0.01269516574 1.772968966e-19 0.01218863518)
(0.0135096458 7.666537839e-19 0.01216642222)
(0.01438194876 -5.017582189e-18 0.01214032008)
(0.01532702171 -3.222722185e-18 0.0121071839)
(0.01639091713 -5.765854758e-19 0.01205059774)
(0.01748627429 3.56865702e-19 0.0120610684)
(0.02214838986 2.692138526e-19 0.009186874797)
(0.01292701531 2.113651641e-19 0.02118761337)
(0.0002178967439 2.052662861e-19 0.02385999808)
(0.0003740090503 1.513341192e-19 0.02385846803)
(0.0005881848331 -7.96843946e-18 0.02385626735)
(0.0008128132857 9.022918313e-21 0.02385302406)
(0.001043098701 2.395005073e-19 0.02384869785)
(0.001278323929 2.100704988e-19 0.02384326846)
(0.001518729234 2.087311193e-19 0.02383671857)
(0.001764885955 2.299638902e-19 0.02382902969)
(0.002017512582 -7.772046806e-18 0.02382018078)
(0.002277408583 -3.792692628e-19 0.02381014769)
(0.002545427727 8.119872609e-18 0.02379890289)
(0.002822467045 8.730497097e-18 0.02378641508)
(0.003109462834 8.46265821e-19 0.02377264892)
(0.003407390224 9.885377539e-20 0.02375756467)
(0.003717264804 1.924712743e-19 0.02374111778)
(0.004040145604 2.085399166e-19 0.02372325837)
(0.004377139143 2.080310331e-19 0.02370393066)
(0.004729404361 2.078050756e-19 0.02368307232)
(0.00509815846 2.082989463e-19 0.0236606137)
(0.005484683661 2.065921097e-19 0.02363647702)
(0.005890334928 2.081281731e-19 0.02361057542)
(0.006316548745 2.065922421e-19 0.02358281197)
(0.006764853019 2.07463882e-19 0.02355307871)
(0.007236878209 2.04970182e-19 0.02352125544)
(0.007734369834 2.034169856e-19 0.02348720864)
(0.008259202608 2.106144415e-19 0.02345078999)
(0.008813396674 2.113587197e-19 0.02341183431)
(0.009399137105 2.062688776e-19 0.0233701558)
(0.01001879918 2.0832463e-19 0.02332553999)
(0.01067498512 2.13024188e-19 0.02327772571)
(0.01137058483 2.146445496e-19 0.02322636334)
(0.01210888857 2.035998892e-19 0.02317091731)
(0.01289381288 1.696753573e-19 0.0231104379)
(0.01373038217 7.728296653e-19 0.02304302215)
(0.01462590444 -5.147509316e-18 0.02296450478)
(0.01559307786 -3.296056204e-18 0.02286583904)
(0.01666277822 -5.825809614e-19 0.02270511062)
(0.01765326164 3.741119211e-19 0.02280101583)
(0.01937244253 2.178078243e-19 0.01616543077)
(0.01018805843 1.875629332e-19 0.04912274418)
(0.0002169949164 2.019230842e-19 0.0227456872)
(0.0003724896775 1.505324228e-19 0.02274356684)
(0.0005857871886 -7.967585884e-18 0.02273991664)
(0.0008094756632 9.913296182e-21 0.02273449794)
(0.001038800465 2.401257876e-19 0.02272726093)
(0.001273050536 2.09342225e-19 0.02271817597)
(0.001512466088 2.089407429e-19 0.02270721519)
(0.001757616646 2.297077398e-19 0.02269434789)
(0.002009218234 -7.767720071e-18 0.0226795388)
(0.002268067517 -3.76147044e-19 0.02266274737)
(0.00253501521 8.121782285e-18 0.02264392724)
(0.002810955041 8.727717438e-18 0.02262302572)
(0.003096819716 8.43017314e-19 0.02259998328)
(0.003393580453 9.770743594e-20 0.02257473296)
(0.003702248553 1.940399124e-19 0.02254719961)
(0.004023878315 2.082069918e-19 0.02251729907)
(0.004359570989 2.091074938e-19 0.02248493714)
(0.004710479664 1.963945082e-19 0.02245000842)
(0.005077815034 2.062626242e-19 0.02241239502)
(0.005462852094 2.099097189e-19 0.02237196501)
(0.005866937814 2.107446593e-19 0.02232857082)
(0.006291499876 2.053342287e-19 0.0222820474)
(0.006738056535 2.042384286e-19 0.02223221033)
(0.007208227667 2.007402958e-19 0.02217885373)
(0.007703747094 2.08174985e-19 0.02212174803)
(0.008226476156 2.079401573e-19 0.02206063737)
(0.008778418547 2.079216931e-19 0.02199523607)
(0.009361736386 2.111355293e-19 0.0219252229)
(0.009978767298 2.133279133e-19 0.02185023002)
(0.01063204186 2.068443554e-19 0.02176981944)
(0.01132429919 2.004431585e-19 0.02168343102)
(0.01205849327 1.950184609e-19 0.02159026539)
(0.01283776511 2.183537238e-19 0.02148902017)
(0.01366529731 7.4347014e-19 0.02137729085)
(0.01454371601 -5.166805522e-18 0.02125015616)
(0.01547264214 -3.235021681e-18 0.02109748253)
(0.0164418564 -4.888756552e-19 0.02087352252)
(0.01729686235 3.075881325e-19 0.02107622877)
(0.01761362452 3.296287508e-19 0.01349485019)
(0.00867482656 1.673150931e-19 0.06253277734)
(0.0002155870465 2.011850532e-19 0.02248840716)
(0.0003700961964 1.497940304e-19 0.02248568098)
(0.0005820294157 -7.96597726e-18 0.02248061195)
(0.0008042781619 1.120786831e-20 0.0224730334)
(0.001032128415 2.3706875e-19 0.0224628995)
(0.001264877823 2.093844731e-19 0.02245017425)
(0.001502767179 2.086360595e-19 0.02243482032)
(0.001746363791 2.286255837e-19 0.02241679524)
(0.001996380251 -7.76948441e-18 0.02239604982)
(0.002253609119 -3.707727329e-19 0.02237252731)
(0.002518896519 8.126618571e-18 0.02234616278)
(0.002793131135 8.727277673e-18 0.0223168824)
(0.003077240151 8.362031648e-19 0.02228460281)
(0.003372188721 1.004235803e-19 0.02224923017)
(0.003678981448 1.942052597e-19 0.02221065923)
(0.003998665199 2.088774395e-19 0.02216877205)
(0.004332332944 2.085042709e-19 0.02212343663)
(0.004681128504 2.079647037e-19 0.02207450523)
(0.005046252185 2.08840461e-19 0.02202181248)
(0.005428967333 2.090136288e-19 0.02196517322)
(0.005830607872 2.122038738e-19 0.02190438014)
(0.006252586869 2.046641597e-19 0.02183920113)
(0.006696406221 2.074158362e-19 0.02176937653)
(0.007163667409 2.044698013e-19 0.02169461614)
(0.007656083289 2.056545933e-19 0.02161459609)
(0.008175490637 2.096479321e-19 0.02152895553)
(0.008723862718 2.112455536e-19 0.02143729265)
(0.009303320427 2.143330346e-19 0.02133915926)
(0.009916138655 2.084495138e-19 0.02123405172)
(0.01056474044 2.079563977e-19 0.02112139341)
(0.01125166176 2.035638419e-19 0.02100049808)
(0.01197944692 1.906641927e-19 0.0208704919)
(0.01275037839 1.891193849e-19 0.02073014898)
(0.01356580429 7.630837817e-19 0.0205775533)
(0.01442445975 -5.252547614e-18 0.02040943157)
(0.01531833818 -3.146720489e-18 0.020220683)
(0.01621996402 -4.107937412e-19 0.01998071758)
(0.01701744086 3.399189052e-19 0.02020038158)
(0.01690071638 3.18734547e-19 0.01277283039)
(0.008120619063 1.64331868e-19 0.07550221985)
(0.000213717616 2.012563452e-19 0.02218277825)
(0.0003668984769 1.501724897e-19 0.02217944163)
(0.0005770048804 -7.967743356e-18 0.02217297135)
(0.0007973352495 1.175930185e-20 0.02216325015)
(0.001023222214 2.399347845e-19 0.02215023796)
(0.001253973149 2.093332083e-19 0.02213389398)
(0.001489829299 2.087618859e-19 0.02211417224)
(0.001731355034 2.274877142e-19 0.02209101897)
(0.001979258438 -7.76706945e-18 0.02206437136)
(0.002234326651 -3.639322227e-19 0.02203415679)
(0.002497399692 8.129716774e-18 0.02200029204)
(0.002769359511 8.725767925e-18 0.02196268257)
(0.003051125889 8.298310428e-19 0.02192122158)
(0.003343655817 1.003762274e-19 0.02187578892)
(0.003647944852 1.946946264e-19 0.02182624985)
(0.003965029785 2.09090443e-19 0.02177245342)
(0.004295992301 2.083456504e-19 0.0217142307)
(0.004641963533 2.085268552e-19 0.02165139262)
(0.005004129484 2.080219754e-19 0.02158372751)
(0.005383737351 2.073767308e-19 0.02151099829)
(0.005782102806 2.079783542e-19 0.02143293937)
(0.006200618306 2.051749153e-19 0.02134925326)
(0.006640762441 2.05533702e-19 0.02125960695)
(0.007104110265 2.059770633e-19 0.02116362813)
(0.007592344395 2.057565374e-19 0.02106090145)
(0.008107266368 2.108306975e-19 0.0209509649)
(0.008650806988 2.105956087e-19 0.02083330653)
(0.00922503305 2.128293169e-19 0.02070736162)
(0.009832145002 2.081222009e-19 0.0205725104)
(0.01047445396 2.017147107e-19 0.02042807633)
(0.01115431335 1.955022726e-19 0.02027332542)
(0.01187395236 2.072298116e-19 0.02010746883)
(0.01263509879 1.868813651e-19 0.01992967923)
(0.01343816 7.521566806e-19 0.01973915894)
(0.01428052396 -5.396652161e-18 0.01953537451)
(0.01515358982 -3.068885827e-18 0.01931934828)
(0.01603119333 -3.137116876e-19 0.01907940417)
(0.01671658617 4.088994035e-19 0.01923345054)
(0.01632519661 2.397096937e-19 0.01238506946)
(0.007751089688 1.544152437e-19 0.08798288474)
(0.0002113828835 2.008815425e-19 0.02188312913)
(0.0003628991291 1.495338523e-19 0.02187918822)
(0.0005707202943 -7.968274594e-18 0.02187133167)
(0.0007886548307 1.459566137e-20 0.02185948682)
(0.001012091106 2.361854354e-19 0.02184361915)
(0.001240347502 2.094207822e-19 0.02182368383)
(0.001473665471 2.089265734e-19 0.02179962677)
(0.001712605638 2.260436984e-19 0.02177138333)
(0.001957870481 -7.77551543e-18 0.02173887747)
(0.002210240414 -3.552432902e-19 0.02170202103)
(0.002470547874 8.131743825e-18 0.02166071296)
(0.002739666431 8.720135255e-18 0.02161483845)
(0.003018506645 8.210619184e-19 0.02156426786)
(0.003308015321 1.02601437e-19 0.02150885545)
(0.003609176708 1.952048049e-19 0.0214484378)
(0.003923014969 2.091748328e-19 0.021382832)
(0.004250597608 2.08806513e-19 0.02131183334)
(0.004593039769 2.074275537e-19 0.0212352128)
(0.004951509364 2.079134446e-19 0.02115271399)
(0.005327233083 2.074931836e-19 0.02106404973)
(0.005721503335 2.086494299e-19 0.02096889825)
(0.006135686199 2.059384501e-19 0.02086689898)
(0.006571230371 2.093680916e-19 0.0207576482)
(0.007029677018 2.05960005e-19 0.02064069459)
(0.007512670282 2.071737681e-19 0.02051553493)
(0.008021967765 2.106132399e-19 0.02038161064)
(0.008559449579 2.097770132e-19 0.02023830588)
(0.009127123031 2.143457973e-19 0.02008494863)
(0.009727117194 2.02409879e-19 0.01992081759)
(0.01036165591 1.975006287e-19 0.01974516051)
(0.0110329867 2.089071807e-19 0.01955723559)
(0.01174322193 2.056345217e-19 0.01935640141)
(0.01249400959 1.846187438e-19 0.01914231123)
(0.01328588585 7.155256613e-19 0.01891533284)
(0.01411706816 -5.474703409e-18 0.01867743166)
(0.01498183374 -2.930828268e-18 0.01843410712)
(0.01586133126 -2.388935428e-19 0.01818957895)
(0.01664468776 4.062302025e-19 0.01821752822)
(0.01619785741 2.90202292e-19 0.01222132597)
(0.007617844649 1.554019394e-19 0.1002298892)
(0.0002085858828 2.013267053e-19 0.02158691072)
(0.000358105389 1.499729922e-19 0.0215823749)
(0.0005631873195 -7.968732325e-18 0.02157314756)
(0.0007782521293 1.839077892e-20 0.02155920041)
(0.0009987538774 2.358013488e-19 0.02154050438)
(0.00122402349 2.088082842e-19 0.02151701086)
(0.001454302384 2.084746827e-19 0.02148865809)
(0.001690146626 2.245448884e-19 0.02145537093)
(0.001932251989 -7.779492266e-18 0.02141706049)
(0.002181390883 -3.437718983e-19 0.02137362348)
(0.002438386732 8.14359445e-18 0.02132494152)
(0.002704103154 8.713432943e-18 0.02127088011)
(0.002979439749 8.106634637e-19 0.02121128751)
(0.003265331216 1.036662862e-19 0.02114599321)
(0.00356274835 1.953233989e-19 0.02107480619)
(0.003872700269 2.089501138e-19 0.02099751276)
(0.004196237558 2.085102365e-19 0.02091387395)
(0.004534456239 2.080097796e-19 0.02082362247)
(0.004888502543 2.084594087e-19 0.02072645922)
(0.005259578532 2.070370505e-19 0.0206220492)
(0.005648948617 2.073386926e-19 0.02051001705)
(0.006057947085 2.037475233e-19 0.02038994205)
(0.006487986626 2.054574843e-19 0.02026135307)
(0.006940567777 2.093949873e-19 0.0201237234)
(0.007417289069 2.07665857e-19 0.01997646605)
(0.007919857294 2.094869184e-19 0.0198189304)
(0.008450096719 2.09787384e-19 0.01965040172)
(0.009009954921 2.150372973e-19 0.01947010598)
(0.009601500985 2.024960173e-19 0.01927722518)
(0.01022690853 2.080691612e-19 0.01907093266)
(0.01088841053 2.065864276e-19 0.01885046769)
(0.01158820479 1.989897989e-19 0.01861528768)
(0.01232827877 1.818180145e-19 0.01836537518)
(0.01311010933 7.145179057e-19 0.01810185372)
(0.01393416183 -5.63040678e-18 0.01782820141)
(0.01479930926 -2.83383907e-18 0.01755231258)
(0.01569314866 -1.467323955e-19 0.01729182447)
(0.01643772453 3.60780774e-19 0.0171703037)
(0.01583471507 2.649039092e-19 0.01219599032)
(0.007386897351 1.99038451e-19 0.1122743859)
(0.0002053310315 2.014068177e-19 0.02129496447)
(0.0003525254331 1.493020455e-19 0.02128984444)
(0.0005544188474 -7.968486823e-18 0.02127926312)
(0.0007661445377 2.057365976e-20 0.02126323778)
(0.0009832324243 2.354751148e-19 0.0212417447)
(0.001205027678 2.090625099e-19 0.02121473176)
(0.001431771497 2.088146312e-19 0.02118212981)
(0.00166401459 2.222865789e-19 0.02114385358)
(0.001902444963 -7.784289589e-18 0.0210998017)
(0.002147825788 -3.326973175e-19 0.02104985626)
(0.002400970121 8.154284396e-18 0.02099388204)
(0.002662730133 8.711048264e-18 0.02093172556)
(0.002933992832 7.98313543e-19 0.02086321378)
(0.003215679014 1.059970028e-19 0.02078815244)
(0.003508744021 1.96491181e-19 0.02070632414)
(0.003814179683 2.093246652e-19 0.02061748586)
(0.004133017123 2.082863434e-19 0.02052136608)
(0.004466330334 2.179455088e-19 0.02041766131)
(0.004815240527 2.090644259e-19 0.02030603208)
(0.0051809213 2.064928751e-19 0.0201860983)
(0.005564604681 2.070780317e-19 0.02005743409)
(0.005967588161 2.0524862e-19 0.01991956209)
(0.006391242814 2.090489605e-19 0.01977194752)
(0.006837022451 2.094517985e-19 0.01961399238)
(0.00730647371 2.080853336e-19 0.01944503012)
(0.007801246832 2.104137183e-19 0.01926432214)
(0.008323106487 2.101567242e-19 0.01907105792)
(0.008873941594 2.139006824e-19 0.01886436207)
(0.009455772569 1.993068415e-19 0.01864331426)
(0.01007075416 1.927420158e-19 0.01840699336)
(0.01072117307 2.131990978e-19 0.01815456632)
(0.01140944452 1.794619277e-19 0.01788546091)
(0.01213812824 1.772945442e-19 0.01759969478)
(0.01291002254 6.693775442e-19 0.01729850099)
(0.01372844662 -5.717481022e-18 0.01698553392)
(0.01459772462 -2.695001461e-18 0.01666892324)
(0.01551906048 -7.380060181e-20 0.01637474536)
(0.01627382357 3.450462614e-19 0.01608070882)
(0.01548836786 2.616832486e-19 0.01228265852)
(0.007133521922 1.473022804e-19 0.1241045545)
(0.0002016236845 2.014760006e-19 0.02100792238)
(0.0003461685827 1.477510868e-19 0.0210022295)
(0.000544429484 -7.970935571e-18 0.0209903127)
(0.0007523520095 2.308864794e-20 0.02097223614)
(0.0009655521016 2.373384617e-19 0.02094798156)
(0.001183390966 2.08999757e-19 0.0209174935)
(0.001406109454 2.088542916e-19 0.02088069567)
(0.001634252169 2.199323517e-19 0.02083749301)
(0.001868498329 -7.785157169e-18 0.02078777207)
(0.002109600705 -3.180948903e-19 0.02073140079)
(0.002358360701 8.160511767e-18 0.02066822776)
(0.00261561766 8.706653128e-18 0.02059808123)
(0.002882244492 7.85120555e-19 0.02052076777)
(0.003159146435 1.075323934e-19 0.02043607054)
(0.003447261558 1.975917053e-19 0.02034374707)
(0.003747562363 2.094416705e-19 0.0202435267)
(0.0040610582 2.083148674e-19 0.02013510734)
(0.004388798399 2.073693667e-19 0.02001815161)
(0.004731876124 2.065332308e-19 0.01989228239)
(0.005091433007 2.065456424e-19 0.0197570776)
(0.00546866467 2.065319069e-19 0.01961206443)
(0.005864827249 2.058757339e-19 0.01945671277)
(0.006281245067 2.085145502e-19 0.01929042849)
(0.006719319602 2.099542672e-19 0.01911254674)
(0.0071805398 2.074467696e-19 0.01892232571)
(0.007666493871 2.105660634e-19 0.01871894233)
(0.008178882745 2.115342913e-19 0.01850149182)
(0.00871953558 2.126714745e-19 0.01826899431)
(0.009290428614 2.052001615e-19 0.01802041437)
(0.009893711143 2.004220461e-19 0.01775470337)
(0.0105317483 2.00681284e-19 0.0174708817)
(0.01120720427 2.056010813e-19 0.01716819021)
(0.01192322198 1.926633917e-19 0.01684635934)
(0.01268382853 6.658841946e-19 0.01650608155)
(0.01349487713 -5.924997294e-18 0.01614985853)
(0.01436640859 -2.575404825e-18 0.01578333439)
(0.01531470263 1.159088283e-20 0.01543153097)
(0.01620587603 3.804965592e-19 0.01493020332)
(0.01534216193 2.397392508e-19 0.01255067241)
(0.006970086325 1.293203062e-19 0.1356839909)
(0.0001974699467 2.01873487e-19 0.02072642049)
(0.0003390453083 1.467986026e-19 0.02072016662)
(0.000533235629 -7.972197448e-18 0.0207069346)
(0.0007368970669 2.762752954e-20 0.02068683676)
(0.0009457416524 2.369162378e-19 0.02065986041)
(0.001159148461 2.093296238e-19 0.02062594693)
(0.001377357925 2.092396315e-19 0.02058501312)
(0.001600907841 2.174982233e-19 0.02053695443)
(0.001830467687 -7.792615242e-18 0.02048164576)
(0.002066778738 -3.022759616e-19 0.02041894139)
(0.002310629567 8.17094285e-18 0.02034867436)
(0.002562845417 8.702870986e-18 0.02027065545)
(0.002824283737 7.709289648e-19 0.02018467184)
(0.003095832741 1.10752023e-19 0.0200904853)
(0.003378411598 1.992997317e-19 0.01998782985)
(0.003672971671 2.105485729e-19 0.01987640899)
(0.003980498502 2.093368365e-19 0.01975589222)
(0.004302014427 2.090617878e-19 0.01962591089)
(0.004638581876 2.076034679e-19 0.01948605324)
(0.004991307407 2.08516049e-19 0.01933585874)
(0.005361346631 2.103285931e-19 0.01917481155)
(0.005749910162 2.091917112e-19 0.01900233324)
(0.006158270853 2.097687801e-19 0.01881777507)
(0.006587772583 2.139422616e-19 0.01862041014)
(0.007039840897 2.124774972e-19 0.01840942589)
(0.007515996049 2.149245999e-19 0.01818391823)
(0.008017869373 2.15592159e-19 0.01794288888)
(0.008547224717 2.191150234e-19 0.01768524895)
(0.009105988492 2.127345101e-19 0.01740983287)
(0.009696295986 2.083356322e-19 0.0171154296)
(0.0103205701 2.061387858e-19 0.01680084116)
(0.01098166553 2.155340795e-19 0.01646498309)
(0.01168314656 2.017727173e-19 0.01610704348)
(0.01242983819 6.466118133e-19 0.01572671643)
(0.01322896478 -6.043198898e-18 0.01532450284)
(0.0140928821 -2.430714747e-18 0.01490154473)
(0.01504604055 8.854604841e-20 0.01447311586)
(0.01583181815 3.758194697e-19 0.01378012461)
(0.01473743964 2.541336419e-19 0.01299998377)
(0.006613251854 1.024099024e-19 0.1469448243)
(0.0001928766155 1.979103294e-19 0.02045108507)
(0.0003311672372 1.439393807e-19 0.02044428248)
(0.0005208555054 -7.973733637e-18 0.02042975731)
(0.0007198047962 3.371914165e-20 0.02040767109)
(0.0009238331567 2.339461626e-19 0.02037801684)
(0.001132339383 2.119393849e-19 0.02034073292)
(0.001345563462 2.126134918e-19 0.02029572945)
(0.001564035745 2.184707723e-19 0.02024289268)
(0.00178841508 -7.803786405e-18 0.02018208627)
(0.002019430245 -2.807679849e-19 0.02011315133)
(0.002257855897 8.19033881e-18 0.020035906)
(0.002504502044 8.699329488e-18 0.01995014445)
(0.002760209474 7.624390897e-19 0.0198556355)
(0.003025848089 1.202826233e-19 0.01975212082)
(0.003302316771 2.068834995e-19 0.01963931256)
(0.003590544205 2.185857222e-19 0.0195168903)
(0.003891490383 2.182753202e-19 0.01938449754)
(0.004206148661 2.180930045e-19 0.01924173715)
(0.004535548424 2.217484517e-19 0.01908816608)
(0.004880758464 2.183599599e-19 0.01892328916)
(0.005242891206 2.179395658e-19 0.01874655189)
(0.005623108007 2.210610679e-19 0.01855733239)
(0.006022625879 2.216155006e-19 0.01835493252)
(0.006442726021 2.146012776e-19 0.01813856864)
(0.006884764719 2.279818496e-19 0.01790736249)
(0.007350187472 2.280769998e-19 0.01766033279)
(0.007840547881 2.299735444e-19 0.0173963892)
(0.008357533932 2.314069119e-19 0.0171143303)
(0.008903006468 2.279537328e-19 0.01681284813)
(0.009479059151 2.282206016e-19 0.01649054197)
(0.01008811772 2.335088269e-19 0.0161459437)
(0.01073311156 2.275226974e-19 0.01577755427)
(0.01141777828 2.368113653e-19 0.01538387959)
(0.0121472084 6.167659499e-19 0.01496342804)
(0.01292879165 -6.12165798e-18 0.01451455623)
(0.0137735438 -2.29312799e-18 0.01403442502)
(0.01469659944 2.000951613e-19 0.01352959336)
(0.0153719198 3.530306031e-19 0.01267323998)
(0.01407632906 2.902338413e-19 0.0135829925)
(0.006232739288 6.424880268e-20 0.1578219453)
(0.0001878511717 2.014582189e-19 0.02018253238)
(0.0003225471574 1.450715789e-19 0.0201751937)
(0.0005073091632 -7.97563111e-18 0.02015939925)
(0.0007011028255 3.547937602e-20 0.02013536053)
(0.000899861972 2.353026394e-19 0.02010307633)
(0.001103006968 2.08895086e-19 0.02006248212)
(0.001310777372 2.091109007e-19 0.02001348156)
(0.001523695501 2.108808599e-19 0.01995595199)
(0.00174240876 -7.807365316e-18 0.01988974614)
(0.001967632518 -2.675936637e-19 0.01981469253)
(0.002200126556 8.195536293e-18 0.01973059503)
(0.002440684651 8.686375904e-18 0.01963723201)
(0.002690129899 7.359219748e-19 0.01953435504)
(0.002949312808 1.149197403e-19 0.01942168704)
(0.003219110832 1.995614471e-19 0.01929891993)
(0.003500428735 2.094563065e-19 0.0191657115)
(0.003794199556 2.080830123e-19 0.01902168171)
(0.004101386061 2.073432195e-19 0.01886640799)
(0.004422982699 2.070986611e-19 0.01869941957)
(0.004760018236 2.077290009e-19 0.01852019079)
(0.005113559186 2.072051698e-19 0.01832813329)
(0.005484714364 2.053108857e-19 0.01812258703)
(0.005874640922 2.074530336e-19 0.01790281024)
(0.006284552449 2.061252497e-19 0.0176679686)
(0.006715729857 2.081121329e-19 0.01741712395)
(0.007169536153 2.109771733e-19 0.01714922284)
(0.007647436913 2.101685134e-19 0.01686308601)
(0.008151029488 2.116653051e-19 0.01655739927)
(0.008682085944 2.046798043e-19 0.01623070655)
(0.009242618501 2.035718006e-19 0.01588140387)
(0.009834983001 2.029175109e-19 0.01550772988)
(0.01046204678 2.044254808e-19 0.01510774065)
(0.01112746423 1.994373439e-19 0.01467923783)
(0.01183612651 5.793100285e-19 0.01421958406)
(0.0125948601 -6.316568188e-18 0.01372527373)
(0.01341332011 -2.152115905e-18 0.01319078269)
(0.01430466812 1.735595258e-19 0.01261893603)
(0.01486234295 3.334212702e-19 0.01161885556)
(0.01335974646 2.318848368e-19 0.01429613778)
(0.005826449933 1.016324779e-19 0.1682687772)
(0.0001824017637 2.003439097e-19 0.01992136765)
(0.0003131990073 1.437904974e-19 0.0199135059)
(0.0004926184656 -7.977569774e-18 0.01989646782)
(0.0006808212874 4.050504307e-20 0.01987051539)
(0.0008738666631 2.340459473e-19 0.01983565319)
(0.001071198361 2.084062152e-19 0.01979181393)
(0.001273055558 2.087089623e-19 0.01973889495)
(0.001479952012 2.068665914e-19 0.0196767649)
(0.001692522941 -7.816527665e-18 0.01960526601)
(0.001911469484 -2.484394591e-19 0.01952421461)
(0.00213753571 8.207189513e-18 0.01943340095)
(0.002371498318 8.681769529e-18 0.01933258847)
(0.002614161867 7.16494961e-19 0.01922151252)
(0.002866356623 1.163853266e-19 0.01909987864)
(0.003128937726 1.988335468e-19 0.01896736024)
(0.003402785078 2.079185213e-19 0.01882359547)
(0.00368880373 2.067641623e-19 0.01866818337)
(0.003987924661 2.074124017e-19 0.01850067909)
(0.004301105959 2.06463078e-19 0.01832058795)
(0.004629334586 2.074931347e-19 0.01812735826)
(0.004973628921 2.059115135e-19 0.01792037292)
(0.005335042401 2.039006371e-19 0.01769893958)
(0.005714668686 2.05766627e-19 0.01746227928)
(0.006113649025 2.036707285e-19 0.01720951388)
(0.006533182715 2.04058796e-19 0.01693965227)
(0.006974541833 2.065842119e-19 0.01665157556)
(0.007439092115 2.070385549e-19 0.01634402136)
(0.007928322894 2.107012094e-19 0.01601556708)
(0.008443890442 2.003246866e-19 0.01566461111)
(0.008987681414 1.948548803e-19 0.01528934826)
(0.009561907109 1.904777826e-19 0.01488773007)
(0.01016924471 1.963556993e-19 0.014457391)
(0.01081304842 1.933504542e-19 0.01399549975)
(0.01149766206 5.359874527e-19 0.013498459)
(0.01222886058 -6.433569326e-18 0.01296132655)
(0.01301434627 -2.006069707e-18 0.0123766442)
(0.01386459394 2.105542525e-19 0.01174383186)
(0.01430076854 3.105988891e-19 0.0106342428)
(0.01260847794 2.032115316e-19 0.01512431462)
(0.005410646398 7.436619368e-20 0.1782509032)
(0.0001765372105 2.004537708e-19 0.01966818416)
(0.0003031378736 1.411077815e-19 0.01965981267)
(0.000476807074 -7.979734606e-18 0.0196415584)
(0.0006589927896 4.494531938e-20 0.01961373397)
(0.000845888945 2.308603046e-19 0.01957634969)
(0.001036964525 2.059728488e-19 0.01952933556)
(0.001232458396 2.060525451e-19 0.01947258274)
(0.00143287528 1.998788428e-19 0.01940595145)
(0.001638837544 -7.829570143e-18 0.01932927365)
(0.001851031374 -2.314471443e-19 0.01924235395)
(0.002070184405 8.220381094e-18 0.01914496958)
(0.002297055572 8.665122736e-18 0.0190368698)
(0.002532430248 6.908530942e-19 0.01891777482)
(0.002777117832 1.150664493e-19 0.01878737414)
(0.003031950556 1.926918182e-19 0.01864532437)
(0.003297782861 2.007891553e-19 0.01849124615)
(0.003575491155 1.989468131e-19 0.01832472033)
(0.003865973866 2.068007458e-19 0.01814528308)
(0.00417015178 1.943385441e-19 0.01795241973)
(0.004488968832 1.931145924e-19 0.01774555733)
(0.004823393601 1.952498305e-19 0.01752405559)
(0.005174421847 1.938030063e-19 0.01728719616)
(0.00554308056 1.935475711e-19 0.01703417005)
(0.00593043425 2.024572952e-19 0.01676406314)
(0.006337594436 1.9520177e-19 0.0164758398)
(0.006765733583 1.93837628e-19 0.01616832441)
(0.007216105168 1.953936438e-19 0.01584018039)
(0.007690072327 1.879661474e-19 0.01548988615)
(0.008189148311 1.929980321e-19 0.01511570553)
(0.008715052605 1.859154796e-19 0.0147156482)
(0.009269787487 1.856558848e-19 0.01428740855)
(0.009855739871 1.819874009e-19 0.01382826196)
(0.01047581065 1.942695638e-19 0.01333487648)
(0.01113357165 4.660317161e-19 0.01280296274)
(0.01183344437 -6.513635956e-18 0.01222664061)
(0.01258084701 -1.893665954e-18 0.01159730062)
(0.01338325787 2.445858236e-19 0.01091133747)
(0.01369830834 2.559710436e-19 0.00972352908)
(0.01184158726 2.421703088e-19 0.01604573213)
(0.004997348525 6.495699765e-20 0.1877541379)
(0.000170266991 2.01272878e-19 0.01942356228)
(0.0002923799769 1.413280219e-19 0.01941469471)
(0.0004599004288 -7.981833375e-18 0.01939525345)
(0.0006356523785 5.127669307e-20 0.0193656016)
(0.0008159736335 2.319403221e-19 0.01932575504)
(0.001000360166 2.087169866e-19 0.01927564111)
(0.001189050621 2.093611256e-19 0.01921514487)
(0.001382540259 1.997696759e-19 0.01914411822)
(0.001581437994 -7.835785433e-18 0.01906238316)
(0.001786414431 -2.039379732e-19 0.01896973292)
(0.001998180179 8.240266747e-18 0.01886593223)
(0.002217475878 8.664254361e-18 0.0187507169)
(0.002445067259 6.765579381e-19 0.01862379296)
(0.00268174249 1.244250663e-19 0.01848483517)
(0.00292831058 2.016455423e-19 0.01833348499)
(0.00318560026 2.093354532e-19 0.01816934775)
(0.003454459064 2.084345555e-19 0.01799198878)
(0.003735752592 2.077944841e-19 0.01780092859)
(0.004030363921 2.075610927e-19 0.01759563671)
(0.004339193308 2.101587179e-19 0.01737552385)
(0.004663158485 2.090175643e-19 0.0171399324)
(0.005003195872 2.081069752e-19 0.01688812493)
(0.005360263222 2.106243781e-19 0.0166192703)
(0.005735344432 2.132956165e-19 0.01633242737)
(0.006129457491 2.078738606e-19 0.01602652594)
(0.006543666824 2.114950932e-19 0.01570034458)
(0.006979101483 2.111910617e-19 0.01535248476)
(0.007436981005 2.130598665e-19 0.01498133997)
(0.007918650906 2.052136897e-19 0.01458505755)
(0.008425628899 2.013587929e-19 0.01416148855)
(0.008959660942 1.980829333e-19 0.01370811519)
(0.009522781481 2.085164278e-19 0.01322193735)
(0.01011736092 2.099919941e-19 0.01269928202)
(0.01074610933 4.78662168e-19 0.01213546794)
(0.0114119881 -6.662412199e-18 0.01152420963)
(0.01211796145 -1.709881999e-18 0.01085656311)
(0.01286791775 2.838525688e-19 0.01012652182)
(0.01306084277 3.040959819e-19 0.008889071858)
(0.01106219596 2.163939095e-19 0.01703623571)
(0.004587908336 5.081774703e-20 0.1967734489)
(0.0001636012412 2.011774841e-19 0.0191880685)
(0.0002809426676 1.387622912e-19 0.01917871886)
(0.0004419257338 -7.984182627e-18 0.01915812158)
(0.0006108375086 5.760825275e-20 0.01912668974)
(0.0007841685847 2.28785457e-19 0.01908444457)
(0.0009614436484 2.086017872e-19 0.01903131073)
(0.001142901217 2.096514119e-19 0.01896716718)
(0.001329026694 1.953027741e-19 0.01889185761)
(0.001520415014 -7.849451139e-18 0.01880519422)
(0.001717720658 -1.812652735e-19 0.01870695915)
(0.001921636727 8.255522695e-18 0.01859690504)
(0.00213288519 8.654373298e-18 0.0184747549)
(0.002352211885 6.543397997e-19 0.01834020144)
(0.002580383622 1.295383147e-19 0.01819290588)
(0.002818186199 2.019945783e-19 0.01803249612)
(0.003066422754 2.096773791e-19 0.01785856421)
(0.003325912157 2.081454666e-19 0.01767066267)
(0.003597487408 2.079227397e-19 0.01746829973)
(0.003881994052 2.072540645e-19 0.01725093327)
(0.004180288688 2.036253061e-19 0.01701796282)
(0.004493237864 2.068014442e-19 0.01676871969)
(0.004821717748 2.077047466e-19 0.01650245474)
(0.005166615043 2.067431816e-19 0.01621832336)