/*--------------------------------*- C++ -*----------------------------------*\
| =========                 |                                                 |
| \\      /  F ield         | OpenFOAM: The Open Source CFD Toolbox           |
|  \\    /   O peration     | Version:  v1912                                 |
|   \\  /    A nd           | Website:  www.openfoam.com                      |
|    \\/     M anipulation  |                                                 |
\*---------------------------------------------------------------------------*/
FoamFile
{
    version     2.0;
    format      ascii;
    class       volVectorField;
    location    "0.3";
    object      U.liquid_0;
}
// * * * * * * * * * * * * * * * * * * * * * * * * * * * * * * * * * * * * * //

dimensions      [0 1 -1 0 0 0 0];


internalField   nonuniform List<vector> 
4800
(
(0.0002119643824 1.992446445e-19 -0.0001497227375)
(0.0003642860865 1.503281188e-19 -0.0001503313849)
(0.0005732040343 -7.703947176e-18 -0.0001510623988)
(0.0007922652396 1.601962992e-20 -0.0001521375475)
(0.001016840851 2.295660601e-19 -0.0001535710156)
(0.001246246933 2.028748238e-19 -0.0001553701623)
(0.001480729284 2.023676008e-19 -0.000157541126)
(0.001720855042 2.280737489e-19 -0.0001600904422)
(0.001967334776 -7.51853703e-18 -0.0001630255457)
(0.002220958661 -3.544396857e-19 -0.0001663549826)
(0.002482570942 7.859796955e-18 -0.0001700885398)
(0.002753059539 8.438974771e-18 -0.0001742373612)
(0.003033352518 7.992436565e-19 -0.0001788140718)
(0.003324418039 9.624231994e-20 -0.0001838329155)
(0.003627266342 1.879072719e-19 -0.0001893099178)
(0.003942953096 2.017700361e-19 -0.0001952630845)
(0.004272583817 2.014276363e-19 -0.000201712623)
(0.004617319235 2.140318127e-19 -0.0002086812069)
(0.004978381582 2.032732162e-19 -0.0002161942659)
(0.005357061819 2.009574957e-19 -0.0002242803189)
(0.005754727872 2.025541335e-19 -0.0002329713458)
(0.006172833912 2.022750794e-19 -0.0002423031716)
(0.006612930717 2.008609042e-19 -0.0002523158857)
(0.00707667721 1.982099583e-19 -0.000263054303)
(0.007565853208 2.018476646e-19 -0.0002745684154)
(0.008082373514 1.962109785e-19 -0.0002869139614)
(0.008628303812 1.952781748e-19 -0.0003001531958)
(0.00920587944 2.071391139e-19 -0.000314356215)
(0.009817529898 2.042993621e-19 -0.0003296037208)
(0.01046591616 2.027472149e-19 -0.0003459932653)
(0.01115399792 2.03933026e-19 -0.0003636539509)
(0.01188517206 1.950393127e-19 -0.0003827814524)
(0.01266358235 1.77157258e-19 -0.0004037221961)
(0.01349484036 7.600863733e-19 -0.0004271753422)
(0.01438770967 -5.025314275e-18 -0.0004546609771)
(0.01535757726 -3.193219171e-18 -0.0004893027472)
(0.01644778149 -5.56374254e-19 -0.0005472141374)
(0.01759212971 3.576344853e-19 -0.0005392281613)
(0.02246414959 2.673649745e-19 -0.003084108932)
(0.01316684297 2.091668201e-19 0.008979398174)
(0.0002145455039 2.045113428e-19 -0.0004509914379)
(0.0003682452209 1.504466991e-19 -0.0004524973487)
(0.0005791183031 -7.896518627e-18 -0.0004546920182)
(0.0008003085563 1.19500382e-20 -0.0004579314839)
(0.0010271089 2.378534308e-19 -0.0004622545797)
(0.001258823913 2.090343151e-19 -0.0004676817829)
(0.001495703183 2.077571768e-19 -0.0004742311864)
(0.00173832343 2.274765216e-19 -0.0004819224467)
(0.001987407715 -7.70473748e-18 -0.0004907780697)
(0.002243760576 -3.66895984e-19 -0.0005008239834)
(0.0025082421 8.05337239e-18 -0.0005120899127)
(0.002781757441 8.649826376e-18 -0.0005246097273)
(0.003065253315 8.31643652e-19 -0.0005384218189)
(0.003359718102 9.975869138e-20 -0.0005535695295)
(0.003666184031 1.920090996e-19 -0.000570101655)
(0.00398573082 2.07507181e-19 -0.0005880730696)
(0.004319490472 2.07039625e-19 -0.0006075454179)
(0.004668653099 2.06780054e-19 -0.0006285879409)
(0.005034473805 2.073229281e-19 -0.0006512784062)
(0.005418280675 2.057362747e-19 -0.0006757041746)
(0.00582148397 2.071751414e-19 -0.0007019633893)
(0.00624558664 2.05686712e-19 -0.0007301662595)
(0.006692196305 2.065419906e-19 -0.0007604364672)
(0.007163038836 2.040179828e-19 -0.0007929127196)
(0.007659973783 2.022081913e-19 -0.0008277503999)
(0.008185011943 2.095137572e-19 -0.0008651235632)
(0.008740335609 2.100239335e-19 -0.0009052276143)
(0.009328322689 2.052884692e-19 -0.0009482836533)
(0.009951577133 2.069714265e-19 -0.0009945468636)
(0.01061297109 2.121015083e-19 -0.001044324494)
(0.01131571076 2.13826899e-19 -0.001098016473)
(0.01206345223 2.031012376e-19 -0.001156209364)
(0.01286052553 1.696026501e-19 -0.0012198965)
(0.0137124018 7.66306149e-19 -0.001290999864)
(0.0146268183 -5.117082312e-18 -0.00137364488)
(0.01561687135 -3.265252085e-18 -0.001476747704)
(0.01671219446 -5.617554855e-19 -0.00164131987)
(0.01775394692 3.754036976e-19 -0.00155328801)
(0.02002684714 2.150824127e-19 -0.007556997538)
(0.01075953288 1.867801289e-19 0.02545824428)
(0.0002136383332 2.011322275e-19 -0.0007534425711)
(0.0003667057518 1.496990645e-19 -0.0007555365767)
(0.0005766839625 -7.898227434e-18 -0.0007591766589)
(0.0007969194592 1.281969782e-20 -0.000764587402)
(0.00102274398 2.384675849e-19 -0.0007718171444)
(0.001253467729 2.083156822e-19 -0.0007808960351)
(0.001489339962 2.079737358e-19 -0.0007918532319)
(0.001730935323 2.271843765e-19 -0.0008047213446)
(0.001978974126 -7.703014573e-18 -0.0008195380299)
(0.002234257796 -3.637943084e-19 -0.0008363467881)
(0.002497643012 8.057835898e-18 -0.0008551975432)
(0.002770031218 8.649625628e-18 -0.0008761472089)
(0.00305236508 8.284633854e-19 -0.0008992603153)
(0.003345628527 9.860008256e-20 -0.0009246097463)
(0.003650848878 1.93565894e-19 -0.000952277595)
(0.003969100395 2.071629791e-19 -0.0009823562224)
(0.004301508969 2.080731538e-19 -0.00101494946)
(0.004649257867 1.956235255e-19 -0.001050174028)
(0.005013594518 2.054301002e-19 -0.001088161168)
(0.005395838405 2.089120196e-19 -0.001129058495)
(0.005797390165 2.098061514e-19 -0.001173032103)
(0.006219742025 2.045045311e-19 -0.001220268865)
(0.006664489678 2.034627907e-19 -0.001270978967)
(0.007133345735 2.000077567e-19 -0.001325398719)
(0.007628154913 2.07241058e-19 -0.00138379362)
(0.008150911 2.069207424e-19 -0.001446461907)
(0.00870377572 2.069776588e-19 -0.001513739112)
(0.009289099522 2.099831594e-19 -0.001586004838)
(0.009909444129 2.12433406e-19 -0.001663694655)
(0.01056760617 2.063018239e-19 -0.001747323839)
(0.01126663952 1.996312274e-19 -0.001837538195)
(0.01200986808 1.945674218e-19 -0.001935226582)
(0.01280086285 2.179119491e-19 -0.002041773589)
(0.01364329529 7.371682245e-19 -0.002159633521)
(0.01454032344 -5.139767375e-18 -0.002293688038)
(0.01549214025 -3.20400418e-18 -0.00245384791)
(0.01648866668 -4.679534083e-19 -0.002684539662)
(0.01745315263 3.088763628e-19 -0.002495792256)
(0.01842315429 3.253118624e-19 -0.009453883694)
(0.009344213067 1.676673088e-19 0.03951194394)
(0.0002122416087 2.001121806e-19 -0.001054266321)
(0.0003643206629 1.489642488e-19 -0.001056965812)
(0.0005729336043 -7.89651225e-18 -0.001062021682)
(0.000791730314 1.40753106e-20 -0.001069588327)
(0.001016080838 2.354518269e-19 -0.001079710521)
(0.001245303393 2.083521778e-19 -0.001092425183)
(0.001479647346 2.076727125e-19 -0.00110777151)
(0.001719684692 2.261391473e-19 -0.001125794605)
(0.001966131864 -7.704596292e-18 -0.001146546986)
(0.002219785683 -3.585050975e-19 -0.001170089475)
(0.002481497673 8.062456202e-18 -0.001196491925)
(0.002752163583 8.649013594e-18 -0.001225833982)
(0.003032719807 8.217097983e-19 -0.001258205944)
(0.003324143335 1.012373372e-19 -0.001293709792)
(0.003627453767 1.936730156e-19 -0.0013324604)
(0.003943716736 2.078609682e-19 -0.001374586996)
(0.004274048442 2.074946364e-19 -0.001420234879)
(0.004619621225 2.070022006e-19 -0.001469567423)
(0.004981670161 2.079338259e-19 -0.001522768398)
(0.005361500762 2.081625808e-19 -0.001580044618)
(0.005760497864 2.111158956e-19 -0.001641628942)
(0.006180135812 2.03752487e-19 -0.001707783587)
(0.006621990064 2.06427184e-19 -0.001778803764)
(0.007087750252 2.035304218e-19 -0.001855021671)
(0.007579234723 2.046372215e-19 -0.001936810797)
(0.008098406384 2.084209159e-19 -0.0020245906)
(0.008647389239 2.099546943e-19 -0.002118831981)
(0.009228484302 2.131511185e-19 -0.00222006431)
(0.00984418174 2.073128294e-19 -0.00232888594)
(0.01049716202 2.072216361e-19 -0.002445982696)
(0.01119026927 2.032016733e-19 -0.002572163965)
(0.01192641731 1.899743609e-19 -0.002708436763)
(0.0127083328 1.888297302e-19 -0.002856159019)
(0.01353789988 7.555958571e-19 -0.003017350863)
(0.01441450653 -5.223745235e-18 -0.003195300504)
(0.0153309172 -3.114335456e-18 -0.003394937475)
(0.01626085715 -3.916958219e-19 -0.003645476575)
(0.01720712108 3.393359783e-19 -0.003445534417)
(0.01782730091 3.158456231e-19 -0.0102137839)
(0.008870118473 1.637053461e-19 0.05232438876)
(0.0002103831405 2.002326867e-19 -0.001352790733)
(0.000361131598 1.493263703e-19 -0.00135610029)
(0.0005679169026 -7.898246111e-18 -0.001362554512)
(0.0007847958727 1.461116862e-20 -0.001372259449)
(0.001007183036 2.382672202e-19 -0.001385254672)
(0.001234405588 2.083040544e-19 -0.001401582339)
(0.001466712767 2.077927167e-19 -0.001421290887)
(0.001704673072 2.250172695e-19 -0.001444437433)
(0.00194899784 -7.702243647e-18 -0.001471088994)
(0.002200477818 -3.517604314e-19 -0.00150132336)
(0.002459957685 8.065502592e-18 -0.001535229931)
(0.002728325606 8.647547711e-18 -0.001572910629)
(0.00300650959 8.154306281e-19 -0.00161448098)
(0.003295477322 1.012183647e-19 -0.001660071415)
(0.003596238024 1.942210277e-19 -0.001709828817)
(0.003909845691 2.080598276e-19 -0.001763918369)
(0.004237403404 2.07399794e-19 -0.001822525767)
(0.004580068652 2.076333264e-19 -0.001885859796)
(0.004939059651 2.071024078e-19 -0.001954155315)
(0.005315662738 2.063552262e-19 -0.002027676694)
(0.005711240909 2.070976604e-19 -0.002106721683)
(0.006127243638 2.043411989e-19 -0.002191625721)
(0.006565218022 2.046125128e-19 -0.002282766607)
(0.007026821265 2.051283271e-19 -0.002380569562)
(0.007513834379 2.045136224e-19 -0.002485512533)
(0.008028176686 2.097022073e-19 -0.002598131538)
(0.008571919996 2.095499323e-19 -0.002719025968)
(0.00914730007 2.114246423e-19 -0.002848863673)
(0.009756720219 2.07706575e-19 -0.002988385525)
(0.01040273595 2.013414613e-19 -0.003138409163)
(0.01108799681 1.948619928e-19 -0.003299830741)
(0.01181509412 2.061904766e-19 -0.003473620804)
(0.0125862053 1.863679444e-19 -0.003660800401)
(0.01340230928 7.44390655e-19 -0.003862352805)
(0.01426154968 -5.369309191e-18 -0.004078939805)
(0.01515630009 -3.03382337e-18 -0.004309530822)
(0.01606245811 -2.948335265e-19 -0.004564754789)
(0.01703907215 4.082628262e-19 -0.004436244043)
(0.01755041857 2.346439762e-19 -0.010612562)
(0.008661336318 1.528589185e-19 0.06471305762)
(0.0002080603279 2.000803863e-19 -0.001648361656)
(0.000357143024 1.48706737e-19 -0.001652275033)
(0.000561643559 -7.898727554e-18 -0.001660112233)
(0.0007761282986 1.740822743e-20 -0.001671935669)
(0.0009960653563 2.345702809e-19 -0.001687779844)
(0.001220792129 2.083942641e-19 -0.00170769146)
(0.001450557382 2.079508487e-19 -0.001731727612)
(0.001685925203 2.236061717e-19 -0.001759956976)
(0.001927600602 -7.710531938e-18 -0.001792460652)
(0.002176366801 -3.432142083e-19 -0.001829332968)
(0.002433059988 8.067478553e-18 -0.001870682375)
(0.002698558912 8.642036583e-18 -0.001916632492)
(0.002973781158 8.067364988e-19 -0.001967323371)
(0.00325968283 1.034803847e-19 -0.002022913046)
(0.003557260216 1.947110517e-19 -0.002083579401)
(0.003867552773 2.080891491e-19 -0.002149522374)
(0.004191647164 2.078478076e-19 -0.002220966644)
(0.004530682248 2.065932655e-19 -0.002298164749)
(0.004885855034 2.0690447e-19 -0.00238140072)
(0.005258427657 2.065410132e-19 -0.002470994258)
(0.005649735473 2.076107286e-19 -0.002567305466)
(0.006061196373 2.050268629e-19 -0.002670740096)
(0.006494321373 2.08081082e-19 -0.002781755217)
(0.006950726438 2.047236592e-19 -0.002900865222)
(0.007432145368 2.060230993e-19 -0.003028647942)
(0.007940443207 2.09570626e-19 -0.003165750313)
(0.008477628888 2.089714e-19 -0.003312892801)
(0.009045864455 2.130500974e-19 -0.003470871279)
(0.009647465496 2.020414002e-19 -0.003640553357)
(0.01028488197 1.971870716e-19 -0.003822863565)
(0.01096063819 2.078792929e-19 -0.004018745245)
(0.01167719051 2.05000942e-19 -0.004229072962)
(0.01243662474 1.841854205e-19 -0.004454457606)
(0.01324005529 7.077702787e-19 -0.004694819785)
(0.01408650715 -5.44711894e-18 -0.004948484705)
(0.01497137729 -2.896501351e-18 -0.005210207366)
(0.01587840876 -2.204239619e-19 -0.005475386968)
(0.01690061763 4.046143526e-19 -0.005479813424)
(0.01734551538 2.868352344e-19 -0.01083257505)
(0.008508908697 1.544877359e-19 0.07687859194)
(0.000205276302 2.004822827e-19 -0.001940325313)
(0.000352362397 1.491427409e-19 -0.001944833001)
(0.000554125666 -7.899170347e-18 -0.001954037136)
(0.0007657435026 2.112888004e-20 -0.001967956662)
(0.0009827475461 2.342219173e-19 -0.001986621186)
(0.001204486873 2.078106835e-19 -0.002010081598)
(0.001431209449 2.074993634e-19 -0.002038403227)
(0.001663474029 2.221187971e-19 -0.002071665873)
(0.001901978082 -7.714458977e-18 -0.002109964276)
(0.002147495889 -3.319665555e-19 -0.002153408806)
(0.00240085357 8.079013115e-18 -0.002202126378)
(0.002662918704 8.635314692e-18 -0.002256261607)
(0.002934596514 7.965903606e-19 -0.002315978222)
(0.003216829371 1.044997813e-19 -0.002381460835)
(0.003510598207 1.947676287e-19 -0.002452917091)
(0.003816925215 2.08000563e-19 -0.002530580217)
(0.004136877528 2.076111064e-19 -0.002614712129)
(0.004471571808 2.070077967e-19 -0.002705607069)
(0.004822179753 2.075180504e-19 -0.002803595854)
(0.005189934573 2.061487831e-19 -0.002909050754)
(0.005576138525 2.064389098e-19 -0.003022391049)
(0.005982171645 2.028924872e-19 -0.003144089201)
(0.006409501726 2.042183509e-19 -0.003274677454)
(0.0068596955 2.081041176e-19 -0.003414754757)
(0.007334430906 2.065985956e-19 -0.003564993621)
(0.007835509958 2.085195598e-19 -0.003726146018)
(0.008364871216 2.084473212e-19 -0.003899046957)
(0.008924599755 2.138408401e-19 -0.004084613269)
(0.009516930818 2.022200266e-19 -0.004283832618)
(0.0101442403 2.073317694e-19 -0.004497733199)
(0.01080901033 2.059484477e-19 -0.00472731508)
(0.01151375148 1.980781075e-19 -0.004973404929)
(0.01226085482 1.814516228e-19 -0.005236356941)
(0.01305234065 7.065319991e-19 -0.005515447016)
(0.01388945101 -5.601786612e-18 -0.005807672346)
(0.01477216717 -2.796877648e-18 -0.006105704944)
(0.01569069776 -1.301950639e-19 -0.006392312505)
(0.01672883301 3.582083641e-19 -0.006552136705)
(0.01710509412 2.610927801e-19 -0.01092389352)
(0.008354342334 1.964757785e-19 0.08884566679)
(0.0002020356876 2.006073538e-19 -0.002228033405)
(0.0003467983227 1.484433549e-19 -0.002233124534)
(0.0005453768602 -7.898919537e-18 -0.002243678036)
(0.0007536599708 2.327344308e-20 -0.002259668322)
(0.0009672529718 2.338816832e-19 -0.002281120107)
(0.00118551826 2.080562516e-19 -0.002308088226)
(0.001408702739 2.078312051e-19 -0.002340645889)
(0.001637358941 2.199062404e-19 -0.002378883617)
(0.00187217562 -7.719145302e-18 -0.002422909318)
(0.002113916769 -3.210315944e-19 -0.002472848852)
(0.002363396939 8.089547614e-18 -0.002528846937)
(0.00262147089 8.633018551e-18 -0.002591068378)
(0.002889029669 7.843950469e-19 -0.002659699603)
(0.003166999904 1.068683054e-19 -0.002734950608)
(0.003456344934 1.959157106e-19 -0.002817057361)
(0.003758067158 2.082790827e-19 -0.002906284656)
(0.004073211307 2.073672735e-19 -0.003002929595)
(0.004402868555 2.168857945e-19 -0.003107325708)
(0.004748181494 2.080336775e-19 -0.003219847778)
(0.005110350038 2.054321689e-19 -0.003340917384)
(0.00549063832 2.060874716e-19 -0.003471009236)
(0.005890382759 2.043158755e-19 -0.003610658253)
(0.006311001397 2.07906151e-19 -0.003760467125)
(0.006754004532 2.08391377e-19 -0.003921114145)
(0.007221006599 2.07098159e-19 -0.004093360947)
(0.007713739159 2.090681626e-19 -0.004278058903)
(0.008234064503 2.092147144e-19 -0.004476152534)
(0.008783989017 2.127831063e-19 -0.004688676758)
(0.009365675144 1.984654254e-19 -0.004916742183)
(0.009981450669 1.922510172e-19 -0.005161497556)
(0.01063381569 2.124200522e-19 -0.005424049245)
(0.01132545368 1.793560224e-19 -0.005705299879)
(0.01205927092 1.775888929e-19 -0.00600563533)
(0.01283853172 6.61819817e-19 -0.006324324875)
(0.01366721968 -5.688341873e-18 -0.0066583606)
(0.0145506197 -2.656528068e-18 -0.007000472766)
(0.01549255982 -5.812544136e-20 -0.007325787271)
(0.01660631555 3.431891325e-19 -0.007663244179)
(0.01689711129 2.573363944e-19 -0.01086312837)
(0.008184269834 1.402827549e-19 0.1005947578)
(0.0001983440928 2.004740464e-19 -0.002510844861)
(0.0003404606328 1.469698316e-19 -0.00251650781)
(0.0005354126107 -7.90135617e-18 -0.002528391316)
(0.0007398988992 2.576172241e-20 -0.00254642397)
(0.0009496086418 2.357311204e-19 -0.002570625485)
(0.00116391929 2.079730375e-19 -0.002601054427)
(0.001383076488 2.078995241e-19 -0.002637791574)
(0.00160762571 2.175366744e-19 -0.002680937771)
(0.001838245887 -7.71998369e-18 -0.002730613609)
(0.002075689448 -3.066832473e-19 -0.002786959848)
(0.002320757973 8.095624952e-18 -0.002850138285)
(0.002574291882 8.62863562e-18 -0.002920333021)
(0.002837166377 7.714567325e-19 -0.002997752091)
(0.00311029051 1.083602337e-19 -0.003082629541)
(0.00339460799 1.969561792e-19 -0.003175228044)
(0.00369109914 2.083746344e-19 -0.003275842011)
(0.004000783691 2.074528262e-19 -0.003384801408)
(0.004324724365 2.064826082e-19 -0.003502476304)
(0.004664031232 2.057028551e-19 -0.003629282226)
(0.005019866945 2.056245658e-19 -0.003765686338)
(0.005393452956 2.056013582e-19 -0.003912214517)
(0.005786076856 2.045463219e-19 -0.004069459325)
(0.006199101027 2.074365878e-19 -0.004238088574)
(0.006633972783 2.089693036e-19 -0.004418854217)
(0.007092236102 2.065279741e-19 -0.004612601175)
(0.007575545167 2.092992018e-19 -0.004820274858)
(0.008085680026 2.106852533e-19 -0.005042925562)
(0.008624564875 2.119378755e-19 -0.005281706634)
(0.009194290589 2.04190558e-19 -0.005537861007)
(0.009797145639 1.997859497e-19 -0.005812686598)
(0.01043566582 1.998556238e-19 -0.006107464413)
(0.01111272793 2.049604905e-19 -0.006423321895)
(0.01183174545 1.926177816e-19 -0.00676098594)
(0.01259710034 6.567603018e-19 -0.007120347247)
(0.01341513461 -5.894819099e-18 -0.007499681069)
(0.0142965788 -2.534866721e-18 -0.007894439718)
(0.01526000767 2.545588679e-20 -0.008281629002)
(0.01642456583 3.757475232e-19 -0.008830380113)
(0.01659753678 2.392581791e-19 -0.01060369026)
(0.007964758185 1.288063565e-19 0.1120819878)
(0.0001942079189 2.010833788e-19 -0.002788127096)
(0.0003333603802 1.459821413e-19 -0.002794349695)
(0.000524250287 -7.902582234e-18 -0.002807541965)
(0.000724484195 3.020362575e-20 -0.002827585484)
(0.0009298451332 2.352918815e-19 -0.002854494816)
(0.001139727394 2.083116718e-19 -0.002888332047)
(0.001354375224 2.082551687e-19 -0.002929185229)
(0.001574326273 2.1514266e-19 -0.002977165144)
(0.001800248612 -7.727318039e-18 -0.003032404571)
(0.00203288192 -2.911041362e-19 -0.003095058551)
(0.002273013521 8.105864112e-18 -0.003165305191)
(0.002521468106 8.62491207e-18 -0.00324334693)
(0.002779103536 7.57462933e-19 -0.003329412229)
(0.003046809659 1.115835772e-19 -0.003423757733)
(0.003325508755 1.986449229e-19 -0.003526671041)
(0.003616157052 2.094635499e-19 -0.003638474048)
(0.003919747013 2.084577032e-19 -0.003759527016)
(0.004237310301 2.080858115e-19 -0.003890233511)
(0.004569921461 2.066817628e-19 -0.004031046222)
(0.004918702407 2.076672863e-19 -0.00418247375)
(0.005284827865 2.093303396e-19 -0.004345088403)
(0.005669531917 2.081051372e-19 -0.004519535046)
(0.006074115946 2.086108183e-19 -0.004706540744)
(0.006499958262 2.127475437e-19 -0.004906924914)
(0.006948525755 2.113613111e-19 -0.005121609579)
(0.007421388171 2.137711389e-19 -0.005351628742)
(0.00792023601 2.142369915e-19 -0.005598135161)
(0.008446903866 2.182158068e-19 -0.005862402042)
(0.009003402914 2.11885589e-19 -0.006145815669)
(0.009591970344 2.075591405e-19 -0.006449852733)
(0.01021515204 2.054630518e-19 -0.006776033222)
(0.01087595213 2.138648526e-19 -0.007125836592)
(0.01157811743 2.013147239e-19 -0.00750056797)
(0.01232669596 6.36925314e-19 -0.007901165957)
(0.01312918174 -6.012771365e-18 -0.008327977382)
(0.01399817721 -2.389384404e-18 -0.00878105021)
(0.0149593931 1.005676629e-19 -0.009247435909)
(0.01608814327 3.712392099e-19 -0.009988255847)
(0.01612294003 2.535017626e-19 -0.01016957851)
(0.007682088134 1.051353293e-19 0.1232310229)
(0.0001896342997 1.97327605e-19 -0.003059257083)
(0.0003255098354 1.431681881e-19 -0.003066026699)
(0.0005119091721 -7.904067933e-18 -0.003080504602)
(0.0007074424502 3.619236269e-20 -0.003102524381)
(0.0009079965142 2.323874523e-19 -0.003132095315)
(0.001112984305 2.108898283e-19 -0.003169282803)
(0.001322648594 2.115684613e-19 -0.003214181891)
(0.001537518506 2.161312958e-19 -0.003266912918)
(0.001758250299 -7.738276599e-18 -0.00332762036)
(0.001985569822 -2.70000816e-19 -0.003396472906)
(0.002220248976 8.124910059e-18 -0.003473664179)
(0.002463095486 8.621356417e-18 -0.003559413954)
(0.002714948564 7.492117932e-19 -0.003653969871)
(0.002976677442 1.209662722e-19 -0.003757609638)
(0.003249181441 2.061930111e-19 -0.003870643881)
(0.003533390993 2.176103204e-19 -0.00399341968)
(0.003830269368 2.171061246e-19 -0.004126324829)
(0.004140814971 2.170440506e-19 -0.004269793088)
(0.004466064275 2.206145926e-19 -0.004424310421)
(0.004807095484 2.172523615e-19 -0.004590422334)
(0.005165033095 2.168805598e-19 -0.004768742375)
(0.00554105357 2.199251989e-19 -0.004959961859)
(0.005936392468 2.205429793e-19 -0.005164860689)
(0.006352353481 2.133758118e-19 -0.005384318951)
(0.006790319897 2.266283584e-19 -0.005619328988)
(0.007251769417 2.269525701e-19 -0.00587100733)
(0.007738293865 2.286339073e-19 -0.006140605114)
(0.008251626437 2.304755083e-19 -0.006429515511)
(0.008793681309 2.26761328e-19 -0.006739276019)
(0.009366614811 2.274332598e-19 -0.007071563514)
(0.009972925552 2.322606851e-19 -0.007428180542)
(0.0106156261 2.259924204e-19 -0.007811035453)
(0.01129854501 2.361369928e-19 -0.008222131302)
(0.0120268609 6.079771675e-19 -0.008663607105)
(0.01280802341 -6.089969503e-18 -0.009137959582)
(0.01365298812 -2.249970992e-18 -0.009649178013)
(0.01457740358 2.098979103e-19 -0.01019286339)
(0.01565452333 3.520327505e-19 -0.011094178)
(0.01557250088 2.903580393e-19 -0.009595261732)
(0.007367434114 7.038894998e-20 0.1339769458)
(0.0001846310852 2.004263113e-19 -0.00332362238)
(0.0003169224791 1.442713764e-19 -0.003330925955)
(0.0004984104496 -7.905945378e-18 -0.003346664488)
(0.0006888028974 3.794019447e-20 -0.003370622863)
(0.0008841002562 2.337240141e-19 -0.003402804972)
(0.00108373593 2.078865835e-19 -0.003443279341)
(0.001287951189 2.081566277e-19 -0.003492147742)
(0.001497265999 2.087067047e-19 -0.003549539712)
(0.001712323937 -7.741785384e-18 -0.003615610945)
(0.001933836053 -2.56975683e-19 -0.003690543149)
(0.002162557797 8.129976832e-18 -0.003774544656)
(0.002399278859 8.608603281e-18 -0.003867851562)
(0.002644818684 7.231252941e-19 -0.003970729403)
(0.002900024717 1.157474923e-19 -0.004083475352)
(0.003165772069 1.989239704e-19 -0.004206421094)
(0.003442964018 2.083880047e-19 -0.004339936464)
(0.003732533109 2.071433163e-19 -0.004484433866)
(0.004035442736 2.064612168e-19 -0.004640373736)
(0.004352689245 2.062031891e-19 -0.004808271152)
(0.004685304686 2.067523145e-19 -0.004988703655)
(0.005034360407 2.06298443e-19 -0.005182320416)
(0.005400971722 2.04311561e-19 -0.00538985285)
(0.005786304084 2.063980967e-19 -0.005612126663)
(0.006191581314 2.04990616e-19 -0.005850075083)
(0.006618096614 2.070880462e-19 -0.006104753108)
(0.007067227456 2.099240709e-19 -0.006377352511)
(0.007540456174 2.089020152e-19 -0.00666921686)
(0.008039399206 2.10837763e-19 -0.006981856025)
(0.008565849902 2.04203482e-19 -0.007316959973)
(0.009121843439 2.028941099e-19 -0.007676413419)
(0.009709758458 2.023614661e-19 -0.008062316391)
(0.01033248061 2.034053509e-19 -0.00847702439)
(0.01099366839 1.991174981e-19 -0.008923241655)
(0.01169817912 5.698266443e-19 -0.009404236395)
(0.01245271998 -6.284118054e-18 -0.009924319684)
(0.01326662704 -2.108627973e-18 -0.01049005648)
(0.0141530909 1.828064309e-19 -0.01110060321)
(0.01516249757 3.285644676e-19 -0.01214114188)
(0.01495019772 2.294896611e-19 -0.008889851857)
(0.007019561127 1.031321431e-19 0.1442775263)
(0.00017920682 1.994274411e-19 -0.003580622127)
(0.0003076129808 1.430593301e-19 -0.003588446209)
(0.0004837771724 -7.907845927e-18 -0.003605418523)
(0.0006685973509 4.288538216e-20 -0.003631274822)
(0.0008581971374 2.324612791e-19 -0.003666013566)
(0.001052032208 2.074183048e-19 -0.003709706247)
(0.001250342349 2.077561679e-19 -0.003762461126)
(0.001453637804 2.047170736e-19 -0.003824416596)
(0.001662548689 -7.750789386e-18 -0.003895739115)
(0.001877770397 -2.380945105e-19 -0.00397662281)
(0.002100041038 8.141477114e-18 -0.004067289933)
(0.00233013137 8.6040774e-18 -0.004167991889)
(0.002568840172 7.040192421e-19 -0.004279010819)
(0.002816992186 1.172461232e-19 -0.004400661749)
(0.003075437365 1.982353149e-19 -0.004533295405)
(0.003345050822 2.069650019e-19 -0.004677301879)
(0.003626733262 2.058632414e-19 -0.004833115142)
(0.003921411795 2.06579233e-19 -0.00500121863)
(0.00423004113 2.055348201e-19 -0.005182152137)
(0.004553605316 2.065657016e-19 -0.00537652006)
(0.004893120231 2.050469284e-19 -0.005585001186)
(0.005249637127 2.029430443e-19 -0.005808360166)
(0.005624247634 2.045971329e-19 -0.006047460813)
(0.006018090886 2.024152594e-19 -0.0063032811)
(0.006432363669 2.028998633e-19 -0.006576929828)
(0.006868334706 2.058601276e-19 -0.006869665039)
(0.00732736497 2.061139919e-19 -0.007182914101)
(0.007810936786 2.09929613e-19 -0.007518295743)
(0.00832069592 1.995532756e-19 -0.007877645429)
(0.008858513076 1.941388167e-19 -0.00826304809)
(0.009426574374 1.901427113e-19 -0.008676887713)
(0.01002751526 1.959217249e-19 -0.009121933462)
(0.01066461781 1.930184615e-19 -0.009601504514)
(0.01134209267 5.273195651e-19 -0.01011978984)
(0.012065463 -6.40056814e-18 -0.01068245431)
(0.01284195096 -1.962908527e-18 -0.01129783187)
(0.01368176244 2.174331361e-19 -0.0119682026)
(0.01461470135 3.054956977e-19 -0.01311309209)
(0.01428455264 2.001406084e-19 -0.008066618937)
(0.006658062495 7.059204447e-20 0.1541021491)
(0.0001733707403 1.996630957e-19 -0.003829668023)
(0.0002975971877 1.40429436e-19 -0.00383799879)
(0.0004680342313 -7.909957475e-18 -0.003856176219)
(0.0006468601536 4.723800442e-20 -0.003883886818)
(0.0008303311564 2.293622774e-19 -0.003921123639)
(0.001017926983 2.050427573e-19 -0.003967961015)
(0.001209885987 2.051303086e-19 -0.004024513494)
(0.001406708199 1.978301881e-19 -0.004090928024)
(0.001609009581 -7.763557078e-18 -0.004167381413)
(0.00181746912 -2.214484938e-19 -0.004254079646)
(0.002032806842 8.154313893e-18 -0.004351258146)
(0.002255773858 8.587742148e-18 -0.004459182655)
(0.002487147596 6.787783914e-19 -0.004578150659)
(0.002727729445 1.158584283e-19 -0.004708493433)
(0.002978343576 1.921471986e-19 -0.004850578733)
(0.003239836308 1.999812391e-19 -0.00500481438)
(0.003513075834 1.982062239e-19 -0.0051716528)
(0.003798952204 2.058534079e-19 -0.005351596647)
(0.00409837755 1.937369498e-19 -0.005545205855)
(0.004412286706 1.922854608e-19 -0.005753106236)
(0.004741638465 1.942252902e-19 -0.005975999801)
(0.005087417779 1.930267264e-19 -0.006214677065)
(0.005450639375 1.925691534e-19 -0.006470031551)
(0.005832353446 2.013693759e-19 -0.006743076594)
(0.006233654393 1.943278268e-19 -0.007034964556)
(0.006655693779 1.929288321e-19 -0.007347008767)
(0.00709969917 1.943335534e-19 -0.007680708674)
(0.007567001181 1.875968311e-19 -0.00803777912)
(0.008059071733 1.925377477e-19 -0.008420185984)
(0.008577577181 1.855403049e-19 -0.008830193284)
(0.009124450053 1.84837864e-19 -0.009270432885)
(0.009701982283 1.810036569e-19 -0.009744017491)
(0.01031294005 1.936763062e-19 -0.0102547393)
(0.01096068965 4.574540056e-19 -0.01080742782)
(0.01164931924 -6.47977637e-18 -0.01140858768)
(0.01238369266 -1.849394624e-18 -0.01206752538)
(0.01317087323 2.503639207e-19 -0.01278922934)
(0.01402459981 2.509465171e-19 -0.01400692753)
(0.0135975221 2.339611303e-19 -0.007149889479)
(0.006295821801 6.323853094e-20 0.1634412216)
(0.000167132758 2.00439498e-19 -0.004070185294)
(0.0002868920974 1.406091395e-19 -0.004079008563)
(0.00045120832 -7.912057487e-18 -0.00409836065)
(0.0006236281184 5.345548951e-20 -0.004127879028)
(0.0008005494505 2.304165037e-19 -0.004167551434)
(0.0009814778916 2.077120942e-19 -0.004217454968)
(0.001166650443 2.08392871e-19 -0.00427771031)
(0.001356556485 1.977026981e-19 -0.004348472721)
(0.001551797226 -7.769706346e-18 -0.004429928989)
(0.001753034603 -1.943494856e-19 -0.004522296464)
(0.001960969962 8.173916872e-18 -0.004625823063)
(0.002176334228 8.586792348e-18 -0.004740787954)
(0.002399883023 6.647101998e-19 -0.004867502777)
(0.002632394014 1.251867453e-19 -0.005006313504)
(0.002874665282 2.009896748e-19 -0.005157602959)
(0.003127514125 2.08476468e-19 -0.005321794195)
(0.003391776024 2.073983508e-19 -0.005499354966)
(0.003668303742 2.068970953e-19 -0.005690803301)
(0.003957966505 2.066536326e-19 -0.005896714583)
(0.004261649398 2.091899388e-19 -0.006117730382)
(0.004580253234 2.081180392e-19 -0.006354569212)
(0.004914695221 2.068159765e-19 -0.006608039571)
(0.005265910893 2.094438736e-19 -0.006879055571)
(0.005634857993 2.122343998e-19 -0.007168655496)
(0.006022523253 2.070138848e-19 -0.007478023515)
(0.006429933248 2.103105655e-19 -0.007808515124)
(0.006858170743 2.101147935e-19 -0.008161687021)
(0.007308398276 2.124344845e-19 -0.008539332853)
(0.00778189068 2.046185463e-19 -0.008943527109)
(0.008280077621 2.008431989e-19 -0.009376682036)
(0.00880459461 1.976576969e-19 -0.009841627592)
(0.009357335013 2.071373529e-19 -0.01034173172)
(0.009940485538 2.087935723e-19 -0.01088109599)
(0.01055650463 4.700728133e-19 -0.01146488864)
(0.0112079869 -6.625249926e-18 -0.01209992444)
(0.011897343 -1.66729561e-18 -0.01279567676)
(0.01262798986 2.872800835e-19 -0.01355921321)
(0.01339874272 3.003954333e-19 -0.01482128991)