/*--------------------------------*- C++ -*----------------------------------*\
| =========                 |                                                 |
| \\      /  F ield         | OpenFOAM: The Open Source CFD Toolbox           |
|  \\    /   O peration     | Version:  v1912                                 |
|   \\  /    A nd           | Website:  www.openfoam.com                      |
|    \\/     M anipulation  |                                                 |
\*---------------------------------------------------------------------------*/
FoamFile
{
    version     2.0;
    format      ascii;
    class       volScalarField;
    location    "1";
    object      alpha.gas;
}
// * * * * * * * * * * * * * * * * * * * * * * * * * * * * * * * * * * * * * //

dimensions      [0 0 0 0 0 0 0];


internalField   nonuniform List<scalar> 
4800
(
1.853380393e-161
8.580425511e-162
5.487971457e-162
3.960274976e-162
3.00698764e-162
2.326757588e-162
1.811762969e-162
1.418278356e-162
1.119146118e-162
8.92493461e-163
7.178753508e-163
5.773207346e-163
4.44980735e-163
7.384327689e-162
7.350278603e-161
9.02561975e-161
6.023645351e-161
2.80972271e-161
3.144012677e-161
2.585869557e-158
1.136380548e-155
2.394642485e-153
2.586862628e-151
6.039103448e-148
3.988090919e-148
8.362912142e-138
1.358317652e-137
5.634311485e-138
5.225984429e-155
8.978858416e-109
3.93964014e-125
1.260571393e-82
5.220298083e-81
1.369040355e-83
1.528652868e-66
6.859530771e-85
2.645988219e-54
7.111348275e-73
5.839932566e-05
0.01067474361
2.124012697e-159
9.569464046e-160
6.166850572e-160
4.550133282e-160
3.56210429e-160
2.83766273e-160
2.27198787e-160
1.839197461e-160
1.517946759e-160
1.282381004e-160
1.101539281e-160
9.445890447e-161
7.723250325e-161
6.832375435e-160
7.770838431e-159
9.832293263e-159
6.749191111e-159
3.240686501e-159
2.208380852e-159
1.218953714e-156
4.955693539e-154
4.746871321e-152
1.843760377e-150
1.108459835e-146
1.050360611e-146
1.1194548e-147
1.951183696e-134
2.380182322e-134
1.124218258e-154
3.463678824e-106
1.731525453e-125
5.105992567e-82
5.236444358e-81
1.477658433e-83
6.636418186e-66
1.060131904e-85
1.207688602e-53
0
0.0002024391549
0.01535169938
1.186353039e-157
5.234495642e-158
3.44563635e-158
2.653956503e-158
2.191968874e-158
1.824234631e-158
1.513730909e-158
1.275622808e-158
1.109645624e-158
9.994124488e-159
9.171388378e-159
8.323213926e-159
7.126580019e-159
3.075549225e-158
3.811116401e-157
4.937777324e-157
3.46930087e-157
1.707162324e-157
8.701153936e-158
2.566373095e-155
9.867791259e-153
3.730601002e-151
9.048860251e-151
9.904551224e-145
6.62187084e-145
6.710698501e-160
1.352197568e-129
1.841659412e-129
3.920025197e-148
1.123840574e-102
8.697410779e-122
1.635687177e-80
3.708020429e-98
1.910291762e-65
2.215604516e-63
3.926315538e-84
1.802876158e-51
2.881531989e-70
0.0004411849633
0.02079672858
4.651461033e-156
1.997736015e-156
1.370939236e-156
1.135720721e-156
1.016688064e-156
8.936814439e-157
7.693578687e-157
6.734118378e-157
6.149893478e-157
5.857594221e-157
5.661869072e-157
5.341584036e-157
4.703193022e-157
1.000208481e-156
1.184467747e-155
1.56363834e-155
1.123185874e-155
5.664711534e-156
2.538252238e-156
3.293657126e-154
1.208027792e-151
1.873367076e-150
9.1495939e-151
2.2776258e-142
1.192909665e-142
0
2.724464322e-125
1.146421605e-125
4.462431064e-144
1.176736524e-99
0
4.313656918e-79
0
1.755921439e-62
4.40755807e-61
1.792566893e-79
2.49784519e-49
0
0.0007457949202
0.02587110001
1.566912026e-154
6.426833369e-155
4.68523323e-155
4.272265597e-155
4.191061818e-155
3.871812886e-155
3.420754216e-155
3.068554536e-155
2.895746491e-155
2.861861314e-155
2.853645034e-155
2.746532386e-155
2.44866725e-155
3.026441937e-155
2.651134896e-154
3.527154406e-154
2.584418118e-154
1.336229256e-154
5.770884806e-155
2.89218769e-153
1.005352536e-150
2.189659966e-149
9.230474192e-151
3.381251365e-141
1.685321485e-141
6.243817234e-160
1.651750576e-122
3.925549629e-123
7.546946976e-143
3.376243285e-96
0
6.879969183e-78
0
3.429789068e-60
3.563148096e-59
0
1.804248721e-47
1.924811784e-69
0.00109120531
0.03033121285
5.198359543e-153
1.984238291e-153
1.533854231e-153
1.530384049e-153
1.616548911e-153
1.539865483e-153
1.374163025e-153
1.243380949e-153
1.19126227e-153
1.198847688e-153
1.211855639e-153
1.174359604e-153
1.050476317e-153
9.671699319e-154
4.668779562e-153
6.089977774e-153
4.52315169e-153
2.395961489e-153
1.041050864e-153
1.851694456e-152
5.889290319e-150
7.262544106e-148
2.141144595e-150
4.459369878e-141
4.481394783e-141
9.989309919e-142
1.824655621e-121
1.205974044e-121
0
2.707014582e-93
1.315285036e-111
7.02009883e-77
3.387062796e-96
1.734998559e-58
1.285137024e-57
0
6.964809905e-46
2.758655656e-69
0.001430257436
0.03424677706
1.765709697e-151
6.178808874e-152
4.93419397e-152
5.216813667e-152
5.743054709e-152
5.530303766e-152
4.925256508e-152
4.446814933e-152
4.272339402e-152
4.322531467e-152
4.382793677e-152
4.248712835e-152
3.796379137e-152
3.109814917e-152
7.180411053e-152
8.598086574e-152
6.352896407e-152
3.432516605e-152
1.528094509e-152
9.08110102e-152
2.293619569e-149
1.78131115e-146
1.328501842e-146
1.612573757e-146
6.558523451e-139
4.473297518e-140
4.862166504e-140
1.646305808e-118
0
4.683229866e-91
4.604657451e-110
4.502468146e-76
0
2.907257013e-57
2.273660484e-56
2.594254657e-75
9.633131406e-45
3.368813749e-67
0.001875880702
0.03764015659
5.889806498e-150
1.900817545e-150
1.517828962e-150
1.633501912e-150
1.819274301e-150
1.750706833e-150
1.545489248e-150
1.384525355e-150
1.325951771e-150
1.342212648e-150
1.361914837e-150
1.321112827e-150
1.17410181e-150
9.171607203e-151
1.116421956e-150
1.099057903e-150
7.68587823e-151
4.160627535e-151
1.908616778e-151
3.663503106e-151
2.130482319e-149
2.25052881e-143
1.581096595e-144
9.734050531e-153
2.097276318e-136
9.498703677e-136
0
3.241038612e-114
0
3.60426809e-89
1.358709181e-107
1.839112693e-75
0
2.294219364e-56
2.593344039e-55
0
1.702449802e-44
8.010859146e-65
0.002435729689
0.0406087559
1.800689731e-148
5.493983378e-149
4.259052693e-149
4.496378479e-149
5.048281056e-149
4.889056936e-149
4.257770538e-149
3.770440259e-149
3.608979745e-149
3.690664358e-149
3.789045163e-149
3.710408395e-149
3.247052194e-149
2.399067584e-149
1.939132452e-149
1.485533624e-149
9.106906048e-150
4.668480697e-150
2.197238364e-150
1.413481188e-150
9.215241528e-151
1.791648896e-139
1.271565399e-140
2.017990089e-153
9.551711177e-132
8.449043909e-133
3.847123871e-151
5.021843041e-110
0
2.099356331e-87
1.474687443e-106
7.641296719e-75
2.111450678e-93
1.04635973e-55
2.515499888e-54
0
1.7046399e-44
6.141884099e-67
0.00299769806
0.04326494881
4.662695404e-147
1.37960263e-147
1.015802719e-147
1.055956866e-147
1.314526831e-147
1.339289153e-147
1.143746463e-147
9.960290885e-148
9.671010689e-148
1.023272224e-147
1.076290053e-147
1.068246602e-147
9.154632919e-148
6.12672198e-148
3.592962066e-148
2.264424129e-148
1.251089125e-148
5.466691906e-149
2.5894501e-149
6.438959672e-150
9.232453658e-151
2.982239515e-137
3.975691068e-138
2.534406342e-156
1.83001816e-126
9.549634171e-128
0
1.190348031e-106
1.85982491e-125
9.307832206e-86
0
5.329746175e-74
0
4.097487659e-55
7.986656827e-54
0
1.703380143e-44
1.396353706e-74
0.003553661152
0.0456651372
9.931490309e-146
2.697703319e-146
1.93345115e-146
2.434198163e-146
4.281092941e-146
4.635765439e-146
3.880899289e-146
3.322525135e-146
3.240373291e-146
3.391079775e-146
3.407998934e-146
3.252233206e-146
2.868830419e-146
1.974362053e-146
7.776594419e-147
3.295510392e-147
1.965549079e-147
7.43588523e-148
3.236745984e-148
3.21392645e-149
1.450017908e-149
2.245775853e-136
2.028049103e-135
0
6.035387757e-122
3.140760521e-123
0
4.858698315e-104
0
2.897119469e-84
0
2.578581561e-73
1.59737595e-92
1.505367752e-54
8.445634918e-54
4.80847218e-71
1.699280572e-44
0
0.00409950672
0.04785417203
2.903423503e-144
4.761993735e-145
4.349088736e-145
1.174265776e-144
3.942256475e-144
5.506075989e-144
4.479151282e-144
3.733170342e-144
4.067954312e-144
5.499589176e-144
7.45318968e-144
8.877063124e-144
6.213933561e-144
2.308424326e-144
4.145853565e-145
5.08598017e-146
2.528880874e-146
1.442414681e-146
4.267058261e-147
1.117187191e-150
4.310053636e-141
3.807999226e-150
1.308681747e-130
3.061190811e-150
2.640538581e-119
2.545947749e-120
1.03597413e-138
7.392196969e-102
7.691074119e-121
3.50827169e-83
0
2.829602774e-73
0
4.028660892e-54
8.453137993e-54
2.321396504e-52
0
1.420757705e-35
0.004638341481
0.04986798374
3.476397657e-139
3.508839497e-140
4.249099505e-140
1.546163509e-139
5.501833326e-139
7.630920733e-139
6.11286523e-139
5.027084032e-139
5.427228122e-139
7.287777687e-139
9.866079731e-139
1.180235791e-138
8.098033891e-139
2.986135722e-139
5.104607535e-140
3.591089e-141
8.882734238e-143
1.195637288e-144
1.176380013e-145
4.972186188e-152
2.478546584e-136
2.65139529e-154
1.284222195e-126
1.688101812e-157
3.208298121e-118
9.938037818e-118
0
8.704114945e-100
0
9.087305416e-83
0
2.825703866e-73
0
4.238895022e-54
8.9941899e-72
4.625358064e-49
4.963877568e-68
1.036742861e-06
0.005171483151
0.05173290977
4.967000284e-134
4.788974719e-135
5.597206815e-135
2.002107295e-134
7.058979828e-134
9.654018622e-134
7.618495744e-134
6.182469813e-134
6.60165254e-134
8.790162793e-134
1.188729966e-133
1.427179018e-133
9.604502072e-134
3.52647849e-134
5.982755997e-135
4.090387202e-136
9.685054896e-138
1.298588438e-139
1.27481661e-140
5.194002767e-152
3.082261816e-132
0
3.6132535e-124
2.714885501e-125
0
8.599471565e-113
1.52427925e-131
6.061959689e-98
0
9.134603344e-83
9.208271178e-102
2.818730217e-73
0
4.233587977e-54
1.300276322e-73
6.282807745e-48
0
4.535868973e-06
0.005702618943
0.05346928696
6.486405808e-129
5.978009972e-130
6.742201268e-130
2.368692223e-129
8.27386097e-129
1.115408748e-128
8.67271055e-129
6.943770973e-129
7.334304235e-129
9.687882307e-129
1.309985585e-128
1.577289364e-128
1.042029864e-128
3.8091339e-129
6.415974592e-130
4.259539704e-131
9.63351953e-133
1.304982988e-134
1.455843131e-135
1.51276395e-147
1.657665881e-129
1.367353657e-130
3.612690603e-123
1.500998449e-123
1.133479723e-141
7.535230181e-108
0
1.511565867e-96
1.247816508e-115
9.119456363e-83
1.360226974e-101
2.816883118e-73
0
4.227934727e-54
5.562376051e-73
1.35191412e-47
1.184371215e-68
1.066015381e-05
0.006235449145
0.05509432769
7.776504119e-124
6.850657502e-125
7.453748326e-125
2.570117852e-124
8.895894881e-124
1.181791467e-123
9.055287471e-124
7.151703358e-124
7.473646066e-124
9.79921494e-124
1.326207145e-123
1.599725198e-123
1.038863045e-123
3.7799394e-124
6.321082594e-125
4.071427082e-126
8.776104911e-128
1.210988996e-129
1.537155806e-130
3.999595496e-132
8.282677197e-128
3.08089626e-129
0
2.511080674e-119
3.585368318e-138
2.867627687e-103
0
1.460790349e-95
0
9.121220515e-83
0
2.810764212e-73
0
4.22140847e-54
0
1.354218333e-47
1.136149676e-69
1.896362048e-05
0.006769893906
0.0566207466
8.592736742e-119
7.230304749e-120
7.585513367e-120
2.565886444e-119
8.805788026e-119
1.152352571e-118
8.703304676e-119
6.779103603e-119
7.010937906e-119
9.131221499e-119
1.238032774e-118
1.493925815e-118
9.552637295e-119
3.458757643e-119
5.740119421e-120
3.583570981e-121
7.346082772e-123
1.042064225e-124
1.484031678e-125
4.178353831e-126
1.976413194e-126
5.122072421e-127
1.154332796e-141
1.518829222e-114
0
2.759391032e-100
6.139831131e-119
6.549314505e-95
0
9.094947452e-83
0
2.803630026e-73
3.523301235e-92
3.806158443e-54
1.896898954e-73
1.354141953e-47
3.154689065e-68
2.901446103e-05
0.007304601991
0.05805771359
8.779638315e-114
7.048230599e-115
7.124500699e-115
2.364066592e-114
8.051174434e-114
1.037332453e-113
7.724585574e-114
5.932854305e-114
6.074203651e-114
7.864013964e-114
1.068930203e-113
1.287990864e-113
8.125820322e-114
2.927148116e-114
4.817359925e-115
2.911969932e-116
5.664954574e-118
8.346096407e-120
1.342445585e-120
4.049140849e-121
9.471089686e-122
1.209107255e-122
2.31154615e-141
8.015240855e-111
5.013566721e-129
1.079235427e-98
0
1.493141452e-94
0
9.057501259e-83
0
2.691287864e-73
0
2.466925388e-54
8.071346357e-73
1.353701675e-47
7.943392095e-72
4.044550424e-05
0.007837709899
0.0594148436
8.315971145e-109
6.363298174e-110
6.190487917e-110
2.015799863e-109
6.81855223e-109
8.642982808e-109
6.348019938e-109
4.806967727e-109
4.873728331e-109
6.276009843e-109
8.556365689e-109
1.027270524e-108
6.409045333e-109
2.296719032e-109
3.744262919e-110
2.18886428e-111
4.03323298e-113
6.243460295e-115
1.136247803e-115
3.645536675e-116
8.769133176e-117
1.151406829e-117
0
1.531127768e-108
1.420758224e-126
3.186269299e-98
1.297961389e-95
2.010602171e-94
0
9.011303526e-83
0
2.113840116e-73
0
9.327008293e-55
0
1.295508456e-47
1.243804335e-70
5.307452355e-05
0.008368622028
0.06070143235
7.31371738e-104
5.333929873e-105
4.987901162e-105
1.594930287e-104
5.361074726e-104
6.678525987e-104
4.840430573e-104
3.613719542e-104
3.629432279e-104
4.650657026e-104
6.360594562e-104
7.591456463e-104
4.695362019e-104
1.673928805e-104
2.699511904e-105
1.524163399e-106
2.655554047e-108
4.376764271e-110
9.023050029e-111
3.081260069e-111
7.628828035e-112
1.032413119e-112
0
1.8767152e-107
4.695428893e-108
0
8.874752609e-91
2.27690993e-91
1.968852108e-110
7.907005543e-83
4.759451412e-101
1.109368995e-73
4.391584121e-92
1.586920007e-55
9.430155857e-75
9.072147185e-48
0
6.682574713e-05
0.008897139368
0.06192577377
5.97682031e-99
4.159370738e-100
3.735575468e-100
1.173593041e-99
3.919334475e-99
4.792119413e-99
3.429491456e-99
2.524657401e-99
2.51242793e-99
3.204215539e-99
4.396281399e-99
5.204552641e-99
3.19965802e-99
1.135007776e-99
1.807516442e-100
9.840550476e-102
1.618950906e-103
2.884262851e-105
6.739849007e-106
2.449766622e-106
6.249156561e-107
8.616987952e-108
5.34996795e-109
3.411071212e-107
4.662714749e-107
2.876258069e-125
4.87180987e-86
1.1881981e-86
0
4.668209264e-83
1.851808016e-94
2.980555341e-74
0
8.739199246e-57
1.322620329e-75
3.472099452e-48
7.639573613e-67
8.161744665e-05
0.009422775135
0.06309410422
4.539125158e-94
3.021380128e-95
2.605786749e-95
8.043901438e-95
2.666302826e-94
3.195041381e-94
2.259410017e-94
1.640655012e-94
1.618160978e-94
2.054232445e-94
2.827585339e-94
3.314180644e-94
2.030684173e-94
7.169286287e-95
1.125001408e-95
5.893487301e-97
9.145689405e-99
1.792065214e-100
4.746126811e-101
1.834906585e-101
4.82781028e-102
6.705302635e-103
4.420595316e-104
1.044392673e-105
4.755311427e-103
0
3.352812833e-82
7.488797687e-83
1.898445051e-84
6.959899519e-99
5.910284024e-75
6.356651604e-75
7.909636329e-94
1.094591131e-58
6.106179876e-79
5.219022069e-49
0
9.728381283e-05
0.009945455916
0.06420957603
3.203872546e-89
2.045572532e-90
1.695437614e-90
5.139236787e-90
1.688082838e-89
1.979683552e-89
1.384405176e-89
9.921345236e-90
9.700253361e-90
1.226017167e-89
1.693640284e-89
1.962836572e-89
1.201874497e-89
4.224149411e-90
6.513794012e-91
3.274223846e-92
4.788689856e-94
1.052560419e-95
3.15643075e-96
1.296087469e-96
3.521090429e-97
4.932541315e-98
3.253470264e-99
8.729105627e-101
6.378129952e-99
0
9.461493434e-80
2.231122373e-80
8.078723981e-82
1.595244156e-85
7.988099312e-74
3.309251438e-74
6.004506165e-94
2.258229652e-61
0
2.099601206e-50
0
0.0001150310499
0.01046443349
0.06527422054
2.102984656e-84
1.290492642e-85
1.029411117e-85
3.060025711e-85
9.944379737e-85
1.140003922e-84
7.888914374e-85
5.583226075e-85
5.413047042e-85
6.815019149e-85
9.456374746e-85
1.082983299e-84
6.643748575e-85
2.324822465e-85
3.511164118e-86
1.687009431e-87
2.323454199e-89
5.856134375e-91
1.984885967e-91
8.637589101e-92
2.425343304e-92
3.434064464e-93
2.270268325e-94
6.481942036e-96
1.210634238e-95
0
1.608615535e-78
8.322111151e-79
8.917436083e-80
0
8.041693394e-74
3.563184566e-74
0
5.81564843e-65
2.53994845e-80
1.553309593e-52
5.721646722e-72
0.0001346218214
0.01097949565
0.06629243486
1.285657024e-79
7.580872022e-81
5.828644219e-81
1.696622665e-80
5.450684113e-80
6.10345121e-80
4.181448562e-80
2.924320443e-80
2.812774477e-80
3.531169411e-80
4.928558517e-80
5.577556489e-80
3.435905765e-80
1.196846217e-80
1.763321817e-81
8.057658157e-83
1.043955207e-84
3.09034744e-86
1.180842775e-86
5.431277002e-87
1.577485202e-87
2.264270935e-88
1.504830406e-89
4.498073861e-91
1.176406316e-92
0
2.406271042e-78
1.557438728e-75
5.79902905e-76
3.047569582e-77
7.301708348e-91
5.16455633e-70
4.612221879e-68
0
5.671690611e-58
1.60476038e-55
0
0.0001557908525
0.01149053204
0.06726926945
7.338884793e-75
4.143943175e-76
3.072585529e-76
8.752011708e-76
2.78159434e-75
3.041476506e-75
2.063140166e-75
1.426547671e-75
1.362217203e-75
1.707927132e-75
2.401962022e-75
2.686963768e-75
1.665175713e-75
5.770411582e-76
8.255705791e-77
3.565680997e-78
4.339628177e-80
1.547449596e-81
6.646244386e-82
3.221636846e-82
9.683529922e-83
1.414074737e-83
9.48482658e-85
2.861964784e-86
4.015210514e-88
2.597769476e-90
0
7.835397953e-71
2.951996982e-71
1.558806825e-72
7.314070254e-91
7.78393637e-66
6.006775473e-66
2.890766421e-84
1.357887311e-57
2.29532817e-57
0
0.0001782812051
0.01199813541
0.06821001504
3.922805433e-70
2.107722622e-71
1.505754724e-71
4.199388635e-71
1.323701004e-70
1.41346452e-70
9.491188468e-71
6.491081679e-71
6.158885362e-71
7.72700751e-71
1.096641432e-70
1.213006436e-70
7.571606621e-71
2.607122146e-71
3.60437657e-72
1.460909999e-73
1.667341366e-75
7.350061971e-77
3.538469e-77
1.802504115e-77
5.607450558e-78
8.362005639e-79
5.686916041e-80
1.734948864e-81
2.417431759e-83
1.457594804e-85
3.746948587e-106
3.536199982e-66
1.343045423e-66
6.906123979e-68
0
3.757763437e-63
5.221770868e-63
2.631489424e-84
3.922462724e-57
4.242770683e-57
1.192543187e-78
0.0002016715595
0.01250263159
0.06911905203
1.967601185e-65
9.984463408e-67
6.854640568e-67
1.876274942e-66
5.887682881e-66
6.14139922e-66
4.080209433e-66
2.761059685e-66
2.605641647e-66
3.277680404e-66
4.697046907e-66
5.136631411e-66
3.230993752e-66
1.10339437e-66
1.466676406e-67
5.536499129e-69
5.916958254e-71
3.309259935e-72
1.782202923e-72
9.516459085e-73
3.062931649e-73
4.680598467e-74
3.243035775e-75
1.004869311e-76
1.399138989e-78
8.421778585e-81
0
1.375432673e-62
6.108717788e-63
4.575412758e-64
2.036084446e-82
1.707944792e-61
7.407345198e-61
3.79405858e-79
8.789487165e-56
5.239838166e-56
3.100210376e-79
0.0002257152083
0.01300413221
0.06999709846
9.261648182e-61
4.4131183e-62
2.901133241e-62
7.826615053e-62
2.453357625e-61
2.500493192e-61
1.642797278e-61
1.100490914e-61
1.034060621e-61
1.306065319e-61
1.887943393e-61
2.039745748e-61
1.292588698e-61
4.367120446e-62
5.553208899e-63
1.937783023e-64
1.939303617e-66
1.411770857e-67
8.499184946e-68
4.746827287e-68
1.579363099e-68
2.480292181e-69
1.758067734e-70
5.556802762e-72
7.76761688e-74
4.702673965e-76
1.202940363e-94
2.70507081e-60
1.417089489e-60
1.776074314e-61
2.576191593e-63
2.112849431e-60
2.103369321e-59
0
1.28592257e-55
1.28481055e-55
6.17983271e-77
0.0002527949293
0.01350008484
0.07084223542
4.08040168e-56
1.823633922e-57
1.14475578e-57
3.05880173e-57
9.588465196e-57
9.551500211e-57
6.201054915e-57
4.116387806e-57
3.855570703e-57
4.891746243e-57
7.112569855e-57
7.582056258e-57
4.83704031e-57
1.611910269e-57
1.950595737e-58
6.247702414e-60
5.875743969e-62
5.710281736e-63
3.845013197e-63
2.241719378e-63
7.701441409e-64
1.245593529e-64
9.057213391e-66
2.929186676e-67
4.13337955e-69
2.54642605e-71
0
4.629891481e-59
3.360644992e-59
8.003224594e-60
3.003723003e-61
1.474741885e-59
8.974485271e-59
0
1.196451437e-55
7.070951128e-55
5.832603817e-76
0.0002810180009
0.01399075452
0.07165556847
1.673917821e-51
7.051222988e-53
4.228310906e-53
1.123372086e-52
3.510796592e-52
3.420186728e-52
2.192405162e-52
1.444500651e-52
1.350353015e-52
1.719760929e-52
2.504379047e-52
2.630540595e-52
1.688261263e-52
5.530280578e-53
6.330544404e-54
1.848180745e-55
1.649538687e-57
2.194455507e-58
1.654675124e-58
1.005002454e-58
3.560777396e-59
5.941525719e-60
4.436678219e-61
1.469010281e-62
2.103727663e-64
1.343652544e-66
0
1.249840962e-58
2.875209991e-58
1.734156308e-58
2.814850051e-59
4.136616946e-59
1.024680766e-58
1.084865748e-57
1.082892157e-57
1.338048839e-51
1.287222763e-72
0.0003096322125
0.01447632735
0.07243987602
6.351220799e-47
2.547039959e-48
1.467006739e-48
3.879409376e-48
1.199913172e-47
1.144242241e-47
7.237967321e-48
4.742409257e-48
4.431081574e-48
5.655899313e-48
8.208266108e-48
8.491794339e-48
5.483238552e-48
1.75918888e-48
1.889930796e-49
4.987801365e-51
4.310174265e-53
8.040362731e-54
6.792920282e-54
4.287071713e-54
1.565374593e-54
2.700617104e-55
2.070309343e-56
6.998240568e-58
1.020640266e-59
6.93752527e-62
2.11110843e-64
1.36977452e-76
3.028751949e-54
2.003541783e-54
4.739924906e-55
2.475944971e-56
3.12691733e-58
2.535068717e-56
1.099723326e-57
7.352099906e-49
0
0.0003384052701
0.01495764977
0.07319890662
2.216011222e-42
8.555688302e-44
4.783631718e-44
1.256071959e-43
3.806809507e-43
3.557958115e-43
2.220132024e-43
1.449558982e-43
1.356007624e-43
1.731515401e-43
2.493836325e-43
2.546612482e-43
1.657096467e-43
5.186990438e-44
5.171422703e-45
1.219129369e-46
1.056622194e-48
2.819232943e-49
2.66488797e-49
1.741074387e-49
6.55601667e-50
1.173540018e-50
9.232212099e-52
3.166373139e-53
4.701480356e-55
3.209171555e-57
9.850763512e-60
5.042541344e-77
8.187903731e-50
5.624423106e-50
1.495411076e-50
9.123198058e-52
8.273276432e-54
3.809093439e-55
1.082892157e-57
1.023287826e-46
2.306243178e-67
0.0003664739218
0.01543526009
0.07393752818
7.100286873e-38
2.65446967e-39
1.460617483e-39
3.789534157e-39
1.113769395e-38
1.021952471e-38
6.289363396e-39
4.099973088e-39
3.847457111e-39
4.907752042e-39
7.007280092e-39
7.11029478e-39
4.676972694e-39
1.421926359e-39
1.294850389e-40
2.676141483e-42
2.462563225e-44
9.481110042e-45
9.98550208e-45
6.714877293e-45
2.616134727e-45
4.884458476e-46
3.948303222e-47
1.363272355e-48
2.04933516e-50
1.41955542e-52
4.344584836e-55
4.269828637e-73
2.138424158e-45
1.572729536e-45
4.712761452e-46
3.422396451e-47
3.829462621e-49
5.752296167e-52
1.099723326e-57
5.083269027e-45
9.918836175e-78
0.0003938403929
0.01590959624
0.07465939094
2.105240946e-33
7.550206607e-35
4.144283097e-35
1.056678124e-34
2.985647951e-34
2.698976731e-34
1.635844686e-34
1.066362544e-34
1.006025876e-34
1.283574059e-34
1.826046964e-34
1.862888369e-34
1.242080767e-34
3.644403775e-35
2.96814612e-36
5.2287479e-38
5.562257683e-40
3.047693613e-40
3.563234101e-40
2.451958068e-40
9.926674325e-41
1.94512407e-41
1.622703195e-42
5.607903452e-44
8.443750486e-46
5.975338162e-48
1.865229488e-50
0
1.27000944e-41
1.187736225e-41
5.223795963e-42
6.385420552e-43
1.335254261e-44
3.394215125e-47
1.116554516e-57
1.186197753e-43
0
0.000420564156
0.01637983545
0.07536364939
5.857344351e-29
1.955756509e-30
1.08237079e-30
2.700948205e-30
7.326445999e-30
6.561540568e-30
3.901058782e-30
2.538299384e-30
2.415554685e-30
3.10526562e-30
4.459185299e-30
4.634345732e-30
3.128430175e-30
8.768316748e-31
6.228798714e-32
9.004078363e-34
1.24356178e-35
9.293547978e-36
1.201976644e-35
8.457363553e-36
3.567123602e-36
7.377442439e-37
6.399639704e-38
2.214621545e-39
3.297314779e-41
2.383369752e-43
7.826265983e-46
9.694957572e-64
5.604466139e-39
6.341952911e-39
3.647590402e-39
6.735105523e-40
2.431032651e-41
1.196454956e-43
4.608643944e-46
1.560453636e-42
5.842789555e-62
0.0004525118004
0.01683834262
0.07604707306
1.547471465e-24
4.578492378e-26
2.576580592e-26
6.279373281e-26
1.667060026e-25
1.490626727e-25
8.62394154e-26
5.564538682e-26
5.364275441e-26
7.053441905e-26
1.037362243e-25
1.105582125e-25
7.492932829e-26
1.973830127e-26
1.18858178e-27
1.346510848e-29
2.785858067e-31
2.669238281e-31
3.80122353e-31
2.73786455e-31
1.207050495e-31
2.645999885e-32
2.407687494e-33
8.420779596e-35
1.229095063e-36
8.998329195e-39
3.250449078e-41
2.729999609e-58
2.60341633e-37
3.583741518e-37
2.428747271e-37
6.414022753e-38
4.020593841e-39
3.940914427e-41
6.347810258e-44
1.280404705e-41
0
0.0004843148431
0.01728856289
0.07670939031
3.851653535e-20
9.576273862e-22
5.546094894e-22
1.320013173e-21
3.604861934e-21
3.231151792e-21
1.810137696e-21
1.14559572e-21
1.125644203e-21
1.534142117e-21
2.319763855e-21
2.52215614e-21
1.690206992e-21
4.093467607e-22
2.016717725e-23
1.692631393e-25
6.219395077e-27
7.166035897e-27
1.118533816e-26
8.269409762e-27
3.824552588e-27
8.900136614e-28
8.559777038e-29
3.078132513e-30
4.420370236e-32
3.230737138e-34
1.369630592e-36
2.691843891e-39
1.901148936e-36
3.348010697e-36
2.780318473e-36
1.259489904e-36
1.948635916e-37
6.186074382e-39
2.492114429e-41
7.376907159e-41
4.4036598e-73
0.0005151030817
0.01773235327
0.07735168965
8.843210631e-16
1.850536488e-17
1.070370747e-17
2.620585776e-17
7.567995409e-17
6.789706278e-17
3.695606004e-17
2.298924873e-17
2.308311942e-17
3.247199161e-17
4.967099793e-17
5.441546925e-17
3.53702292e-17
7.649619015e-18
2.91073893e-19
1.648442076e-21
1.343790828e-22
1.812922827e-22
3.031932813e-22
2.320158659e-22
1.129770023e-22
2.786336067e-23
2.84595807e-24
1.074843042e-25
1.551517311e-27
1.116712056e-29
4.901480178e-32
1.258391971e-34
5.374619098e-36
2.811349838e-35
4.732459541e-35
3.485693071e-35
1.047225814e-35
7.278667786e-37
7.037002798e-39
3.480673358e-40
8.177501984e-61
0.000543769404
0.0181696412
0.07797543736
7.291375278e-12
2.687406622e-13
1.848499101e-13
4.229026214e-13
9.15432614e-13
7.792965697e-13
4.484426464e-13
3.034269913e-13
3.03978035e-13
3.813395567e-13
4.767776538e-13
4.373151815e-13
2.260820773e-13
4.095057065e-14
1.406860757e-15
9.854137413e-18
2.735599867e-18
4.287961501e-18
7.513307212e-18
6.013164966e-18
3.093297019e-18
8.058597259e-19
8.768021927e-20
3.554965148e-21
5.360161564e-23
3.783338575e-25
1.695330148e-27
4.653152614e-30
8.882504568e-33
4.046923538e-31
8.852490941e-31
7.021284832e-31
2.385539785e-31
1.929329452e-32
2.204623159e-34
2.902849165e-37
5.559695845e-58
0.00057355975
0.01860316449
0.07858191015
5.866916528e-09
4.347137503e-10
3.750356603e-10
7.027664343e-10
1.114384375e-09
9.044202161e-10
5.602689226e-10
4.135881422e-10
4.036768346e-10
4.461308191e-10
4.598652831e-10
3.537433016e-10
1.531251877e-10
2.690180439e-11
1.201072493e-12
5.88677e-14
5.156146941e-14
9.398063074e-14
1.688306101e-13
1.430397473e-13
7.78186208e-14
2.131778887e-14
2.478735775e-15
1.103123485e-16
1.824776334e-18
1.274292998e-20
5.834763933e-23
1.700176716e-25
3.357481602e-28
1.160154165e-27
3.6613801e-27
3.507489161e-27
1.848145529e-27
3.139296886e-28
1.001718732e-29
3.671202016e-32
0
0.000599367894
0.01903283057
0.07917394015
6.939397381e-07
1.014584166e-07
9.946580171e-08
1.550658611e-07
1.915067346e-07
1.497413323e-07
1.00312044e-07
7.901028965e-08
7.395888506e-08
7.222963511e-08
6.298552046e-08
4.134816616e-08
1.645423685e-08
3.363854703e-09
3.154057214e-10
1.11077203e-10
1.441826851e-10
2.626448535e-10
3.761470317e-10
3.207308547e-10
1.796915491e-10
5.72535948e-11
9.400688612e-12
7.342829101e-13
2.554842181e-14
3.728237367e-16
2.233040065e-18
6.776675234e-21
1.595111855e-23
6.608645434e-25
1.105365434e-24
1.374502329e-24
1.031480012e-24
3.44694606e-25
2.916182035e-26
3.293942467e-28
7.087754574e-49
0.0006211326366
0.01946450862
0.07975536469
1.854544041e-05
4.912338538e-06
5.078974816e-06
6.69491172e-06
6.864305334e-06
5.246401822e-06
3.780584885e-06
3.087190688e-06
2.742150663e-06
2.384095479e-06
1.807972756e-06
1.068632551e-06
4.384535895e-07
1.263798134e-07
3.45593418e-08
3.238522835e-08
4.70666216e-08
7.363710192e-08
8.380212351e-08
6.702233848e-08
3.669189746e-08
1.298921574e-08
2.801379379e-09
3.42266382e-10
2.179076449e-11
6.604136629e-13
8.942788335e-15
6.036816869e-17
2.794629108e-19
1.093169446e-21
1.199971474e-22
1.030618705e-22
8.117622831e-23
3.870154601e-23
6.347447829e-24
1.72812496e-25
1.201253783e-45
0.0006428933806
0.0198906058
0.08032829692
0.0001732971119
7.204678345e-05
7.471788238e-05
8.529339015e-05
7.709576967e-05
5.85028487e-05
4.45903159e-05
3.672067046e-05
3.077131073e-05
2.421341922e-05
1.666965577e-05
9.580876024e-06
4.591536802e-06
2.134012513e-06
1.43331613e-06
1.782012981e-06
2.465979761e-06
3.040864698e-06
2.799587191e-06
1.97377984e-06
1.023711744e-06
3.853220181e-07
1.004676688e-07
1.688064241e-08
1.673539269e-09
8.954171077e-11
2.428112443e-12
3.521372517e-14
3.079060697e-16
1.84348019e-18
1.38958547e-20
3.449226863e-21
2.113543268e-21
1.049891617e-21
2.423877323e-22
1.210049716e-23
6.563181596e-44
0.0006683513557
0.0203161835
0.08089239545
0.0008104595572
0.0004600588207
0.0004645154985
0.0004725651199
0.0003948569451
0.0003024869403
0.0002382320201
0.00019411032
0.0001540220235
0.0001127389231
7.458215588e-05
4.549843122e-05
2.805935558e-05
2.043779621e-05
2.112160349e-05
2.614786238e-05
3.034808359e-05
2.907681322e-05
2.212077213e-05
1.347797239e-05
6.551283272e-06
2.521289763e-06
7.378173855e-07
1.532937874e-07
2.094414229e-08
1.774981378e-09
8.995048556e-11
2.700228013e-12
4.73660326e-14
6.483401288e-16
3.955153446e-17
1.0363836e-17
3.365775913e-18
8.169303763e-19
1.033648273e-19
3.649718893e-21
0
0.0006966172643
0.02073456262
0.08144681843
0.002338122907
0.001647950977
0.001599798009
0.001486110805
0.001200550879
0.0009449877845
0.0007609136632
0.0006123732894
0.000469526997
0.0003345248534
0.000226198617
0.0001571310188
0.000125012478
0.0001176073899
0.0001322478565
0.0001436608707
0.0001346813273
0.0001036192305
6.662170518e-05
3.641780264e-05
1.682339696e-05
6.564096218e-06
2.126442582e-06
5.459072434e-07
1.064506414e-07
1.630117031e-08
2.442035602e-09
3.580377706e-10
3.945962136e-11
7.883379061e-12
2.379614058e-12
7.379533757e-13
1.978700062e-13
3.835483265e-14
4.099333932e-15
1.321230549e-16
5.526682346e-37
0.0007171268931
0.02115918483
0.08199345911
0.004921778476
0.003929957724
0.003670403951
0.003205589784
0.002576046912
0.002080589884
0.001699454589
0.001361814499
0.001040726429
0.0007632799798
0.0005656364351
0.0004586942487
0.0004241924212
0.0004300929341
0.0004488035727
0.0004146889828
0.0003208505731
0.0002109066114
0.0001218115372
6.382218057e-05
3.057254775e-05
1.354989258e-05
6.03410721e-06
3.005011459e-06
1.82940725e-06
1.227121171e-06
7.466298894e-07
3.574855925e-07
1.083596108e-07
3.286731064e-08
9.874732629e-09
2.827896878e-09
6.897496307e-10
1.228283545e-10
1.321660435e-11
4.911679336e-13
0
0.000743144698
0.0215910181
0.082534174
0.008483884039
0.007220942349
0.006525795339
0.005501091769
0.004459125275
0.003674957917
0.003036260367
0.002451371288