/*--------------------------------*- C++ -*----------------------------------*\
| =========                 |                                                 |
| \\      /  F ield         | OpenFOAM: The Open Source CFD Toolbox           |
|  \\    /   O peration     | Version:  v1912                                 |
|   \\  /    A nd           | Website:  www.openfoam.com                      |
|    \\/     M anipulation  |                                                 |
\*---------------------------------------------------------------------------*/
FoamFile
{
    version     2.0;
    format      ascii;
    class       volScalarField;
    location    "1";
    object      alpha.liquid_0;
}
// * * * * * * * * * * * * * * * * * * * * * * * * * * * * * * * * * * * * * //

dimensions      [0 0 0 0 0 0 0];


internalField   nonuniform List<scalar> 
4800
(
1
1
1
1
1
1
1
1
1
1
1
1
1
1
1
1
1
1
1
1
1
1
1
1
1
1
1
1
1
1
1
1
1
1
1
1
1
1
0.9999416265
0.9893258805
1
1
1
1
1
1
1
1
1
1
1
1
1
1
1
1
1
1
1
1
1
1
1
1
1
1
1
1
1
1
1
1
1
1
1
1
1
1
0.9997976789
0.9846489993
1
1
1
1
1
1
1
1
1
1
1
1
1
1
1
1
1
1
1
1
1
1
1
1
1
1
1
1
1
1
1
1
1
1
1
1
1
1
0.999558581
0.9792044399
1
1
1
1
1
1
1
1
1
1
1
1
1
1
1
1
1
1
1
1
1
1
1
1
1
1
1
1
1
1
1
1
1
1
1
1
1
1
0.9992557351
0.974128375
1
1
1
1
1
1
1
1
1
1
1
1
1
1
1
1
1
1
1
1
1
1
1
1
1
1
1
1
1
1
1
1
1
1
1
1
1
1
0.9989106582
0.9696677412
1
1
1
1
1
1
1
1
1
1
1
1
1
1
1
1
1
1
1
1
1
1
1
1
1
1
1
1
1
1
1
1
1
1
1
1
1
1
0.9985680732
0.9657558371
1
1
1
1
1
1
1
1
1
1
1
1
1
1
1
1
1
1
1
1
1
1
1
1
1
1
1
1
1
1
1
1
1
1
1
1
1
1
0.9981239279
0.962363211
1
1
1
1
1
1
1
1
1
1
1
1
1
1
1
1
1
1
1
1
1
1
1
1
1
1
1
1
1
1
1
1
1
1
1
1
1
1
0.9975645783
0.9593943695
1
1
1
1
1
1
1
1
1
1
1
1
1
1
1
1
1
1
1
1
1
1
1
1
1
1
1
1
1
1
1
1
1
1
1
1
1
1
0.9970024598
0.9567378551
1
1
1
1
1
1
1
1
1
1
1
1
1
1
1
1
1
1
1
1
1
1
1
1
1
1
1
1
1
1
1
1
1
1
1
1
1
1
0.9964463258
0.9543373571
1
1
1
1
1
1
1
1
1
1
1
1
1
1
1
1
1
1
1
1
1
1
1
1
1
1
1
1
1
1
1
1
1
1
1
1
1
1
0.9959003966
0.9521478408
1
1
1
1
1
1
1
1
1
1
1
1
1
1
1
1
1
1
1
1
1
1
1
1
1
1
1
1
1
1
1
1
1
1
1
1
1
1
0.9953614177
0.9501334576
1
1
1
1
1
1
1
1
1
1
1
1
1
1
1
1
1
1
1
1
1
1
1
1
1
1
1
1
1
1
1
1
1
1
1
1
1
0.9999989588
0.9948282449
0.9482678619
1
1
1
1
1
1
1
1
1
1
1
1
1
1
1
1
1
1
1
1
1
1
1
1
1
1
1
1
1
1
1
1
1
1
1
1
1
0.9999954531
0.9942970895
0.946530812
1
1
1
1
1
1
1
1
1
1
1
1
1
1
1
1
1
1
1
1
1
1
1
1
1
1
1
1
1
1
1
1
1
1
1
1
1
0.9999893217
0.9937641996
0.9449052571
1
1
1
1
1
1
1
1
1
1
1
1
1
1
1
1
1
1
1
1
1
1
1
1
1
1
1
1
1
1
1
1
1
1
1
1
1
0.9999810099
0.9932296478
0.9433786577
1
1
1
1
1
1
1
1
1
1
1
1
1
1
1
1
1
1
1
1
1
1
1
1
1
1
1
1
1
1
1
1
1
1
1
1
1
0.9999709505
0.9926949413
0.9419416829
1
1
1
1
1
1
1
1
1
1
1
1
1
1
1
1
1
1
1
1
1
1
1
1
1
1
1
1
1
1
1
1
1
1
1
1
1
0.999959515
0.9921618445
0.9405845368
1
1
1
1
1
1
1
1
1
1
1
1
1
1
1
1
1
1
1
1
1
1
1
1
1
1
1
1
1
1
1
1
1
1
1
1
1
0.9999468818
0.9916309128
0.9392978426
1
1
1
1
1
1
1
1
1
1
1
1
1
1
1
1
1
1
1
1
1
1
1
1
1
1
1
1
1
1
1
1
1
1
1
1
1
0.9999331274
0.9911023478
0.9380733302
1
1
1
1
1
1
1
1
1
1
1
1
1
1
1
1
1
1
1
1
1
1
1
1
1
1
1
1
1
1
1
1
1
1
1
1
1
0.9999183338
0.9905766587
0.9369049453
1
1
1
1
1
1
1
1
1
1
1
1
1
1
1
1
1
1
1
1
1
1
1
1
1
1
1
1
1
1
1
1
1
1
1
1
1
0.9999026151
0.9900539127
0.9357897171
1
1
1
1
1
1
1
1
1
1
1
1
1
1
1
1
1
1
1
1
1
1
1
1
1
1
1
1
1
1
1
1
1
1
1
1
1
0.9998848588
0.9895349366
0.9347253544
1
1
1
1
1
1
1
1
1
1
1
1
1
1
1
1
1
1
1
1
1
1
1
1
1
1
1
1
1
1
1
1
1
1
1
1
1
0.9998652651
0.9890198983
0.9337072993
1
1
1
1
1
1
1
1
1
1
1
1
1
1
1
1
1
1
1
1
1
1
1
1
1
1
1
1
1
1
1
1
1
1
1
1
1
0.9998440967
0.9885088423
0.9327304118
1
1
1
1
1
1
1
1
1
1
1
1
1
1
1
1
1
1
1
1
1
1
1
1
1
1
1
1
1
1
1
1
1
1
1
1
1
0.9998216137
0.9880011688
0.9317893935
1
1
1
1
1
1
1
1
1
1
1
1
1
1
1
1
1
1
1
1
1
1
1
1
1
1
1
1
1
1
1
1
1
1
1
1
1
0.999798247
0.987496592
0.9308800937
1
1
1
1
1
1
1
1
1
1
1
1
1
1
1
1
1
1
1
1
1
1
1
1
1
1
1
1
1
1
1
1
1
1
1
1
1
0.9997741337
0.9869950303
0.9300021873
1
1
1
1
1
1
1
1
1
1
1
1
1
1
1
1
1
1
1
1
1
1
1
1
1
1
1
1
1
1
1
1
1
1
1
1
1
0.9997469043
0.9864992623
0.9291574337
1
1
1
1
1
1
1
1
1
1
1
1
1
1
1
1
1
1
1
1
1
1
1
1
1
1
1
1
1
1
1
1
1
1
1
1
1
0.9997187146
0.9860085996
0.9283444277
1
1
1
1
1
1
1
1
1
1
1
1
1
1
1
1
1
1
1
1
1
1
1
1
1
1
1
1
1
1
1
1
1
1
1
1
1
0.9996901378
0.9855229944
0.9275602739
1
1
1
1
1
1
1
1
1
1
1
1
1
1
1
1
1
1
1
1
1
1
1
1
1
1
1
1
1
1
1
1
1
1
1
1
1
0.9996614219
0.9850415667
0.9268010723
1
1
1
1
1
1
1
1
1
1
1
1
1
1
1
1
1
1
1
1
1
1
1
1
1
1
1
1
1
1
1
1
1
1
1
1
1
0.9996334553
0.9845638132
0.9260619076
1
1
1
1
1
1
1
1
1
1
1
1
1
1
1
1
1
1
1
1
1
1
1
1
1
1
1
1
1
1
1
1
1
1
1
1
1
0.9996061997
0.9840894384
0.9253394881
1
1
1
1
1
1
1
1
1
1
1
1
1
1
1
1
1
1
1
1
1
1
1
1
1
1
1
1
1
1
1
1
1
1
1
1
1
0.9995788588
0.9836198553
0.9246351837
1
1
1
1
1
1
1
1
1
1
1
1
1
1
1
1
1
1
1
1
1
1
1
1
1
1
1
1
1
1
1
1
1
1
1
1
1
0.9995468718
0.9831618389
0.9239520062
1
1
1
1
1
1
1
1
1
1
1
1
1
1
1
1
1
1
1
1
1
1
1
1
1
1
1
1
1
1
1
1
1
1
1
1
1
0.9995152062
0.9827119721
0.9232900015
1
1
1
1
1
1
1
1
1
1
1
1
1
1
1
1
1
1
1
1
1
1
1
1
1
1
1
1
1
1
1
1
1
1
1
1
1
0.9994845554
0.9822684984
0.9226480301
1
1
1
1
1
1
1
1
1
1
1
1
1
1
1
1
1
1
1
1
1
1
1
1
1
1
1
1
1
1
1
1
1
1
1
1
1
0.9994560365
0.9818314699
0.9220246005
1
1
1
1
1
1
1
1
1
1
1
1
1
1
1
1
1
1
1
1
1
1
1
1
1
1
1
1
1
1
1
1
1
1
1
1
1
0.9994263627
0.9813981223
0.9214183735
0.9999999968
0.9999999998
0.9999999998
0.9999999996
0.9999999994
0.9999999995
0.9999999997
0.9999999998
0.9999999998
0.9999999997
0.9999999997
0.9999999998
0.9999999999
1
1
1
1
1
1
1
1
1
1
1
1
1
1
1
1
1
1
1
1
1
1
1
1
0.9994011067
0.9809686299
0.9208263487
0.9999995433
0.9999999363
0.999999937
0.9999998989
0.9999998707
0.9999998976
0.9999999308
0.9999999449
0.9999999475
0.9999999474
0.999999953
0.9999999683
0.9999999871
0.9999999973
0.9999999998
0.9999999999
0.9999999999
0.9999999998
0.9999999997
0.9999999998
0.9999999999
1
1
1
1
1
1
1
1
1
1
1
1
1
1
1
1
0.9993792224
0.9805374191
0.9202447559
0.999985997
0.9999964339
0.9999962808
0.9999949803
0.9999947271
0.9999959334
0.9999970562
0.9999975744
0.9999978131
0.9999980624
0.9999985006
0.9999990983
0.9999996271
0.9999998936
0.9999999726
0.9999999752
0.9999999639
0.9999999424
0.9999999324
0.9999999451
0.9999999694
0.999999989
0.9999999976
0.9999999997
1
1
1
1
1
1
1
1
1
1
1
1
1
0.9993580976
0.9801118404
0.9196715992
0.9998562241
0.9999418714
0.9999391892
0.9999292666
0.9999350718
0.9999504696
0.9999621428
0.9999685832
0.9999733415
0.9999787036
0.9999851437
0.9999913928
0.9999958964
0.9999981378
0.999998801
0.999998516
0.999997923
0.9999973778
0.999997536
0.9999982336
0.9999990728
0.9999996482
0.9999999078
0.9999999845
0.9999999985
0.9999999999
1
1
1
1
1
1
1
1
1
1
1
0.9993320575
0.9796876663
0.9191076689
0.9992835988
0.9996017321
0.999594578
0.9995817112
0.9996470575
0.9997288642
0.999785832
0.9998242964
0.9998591856
0.9998958106
0.9999306157
0.9999577426
0.9999742947
0.9999816788
0.9999813293
0.9999767094
0.9999725007
0.9999731011
0.9999792102
0.999987179
0.9999937183
0.9999975722
0.9999992884
0.9999998522
0.9999999799
0.9999999983
0.9999999999
1
1
1
1
1
1
1
1
1
1
0.9993045689
0.9792705481
0.9185536507
0.9978415886
0.9984979231
0.9985316795
0.9986220399
0.9988814946
0.9991187987
0.9992888438
0.9994247682
0.9995561788
0.9996823052
0.9997852318
0.9998519435
0.9998836768
0.9998915552
0.9998777662
0.9998655037
0.9998716877
0.9998996926
0.9999348049
0.9999641135
0.9999833648
0.9999935064
0.9999979027
0.9999994645
0.9999998965
0.9999999844
0.9999999977
0.9999999997
1
1
1
1
1
1
1
1
1
0.9992842214
0.9788470847
0.9180075751
0.9953297143
0.9962946664
0.9965199984
0.996940594
0.9975369616
0.9980098736
0.9983713771
0.9986905008
0.9989962425
0.9992638293
0.9994571161
0.999563397
0.9995985023
0.999593159
0.9995716384
0.9995983365
0.9996849645
0.9997909673
0.9998786594
0.9999363774
0.9999696489
0.9999866973
0.999994214
0.9999972059
0.9999983269
0.9999988664
0.9999992936
0.9999996515
0.9999998909
0.9999999663
0.9999999898
0.999999997
0.9999999993
0.9999999999
1
1
1
0.9992578305
0.9784167424
0.9174676904
0.9918062251
0.9930439057
0.993686558
0.9946579593
0.995668282
0.9964292806
0.9970460078
0.9976109325
0.9981299117
0.9985448893
0.9988103622
0.9989341529
0.9989679996
0.9989675857
0.9990274606
0.9992176068
0.999456132
0.9996613118
0.9998023167
0.9998850905
0.9999271311
0.9999457092
0.9999500459
0.9999505024
0.9999512414
0.9999553791
0.9999640355
0.9999752845
0.9999864699
0.9999945934
0.9999980516
0.9999994082
0.9999998592
0.999999976
0.9999999975
0.9999999999
1
0.9992322698
0.9779755337
0.9169329918
0.9874619369
0.9890013958
0.9902787585
0.9919198848
0.9933654476
0.9944429881
0.9953430049
0.9961609078
0.9968716017
0.9973965215
0.9977050502
0.9978477401
0.9979173279
0.9980212685
0.9983270107
0.9987656045
0.9991653952
0.9994487925
0.9996160345
0.9996967325
0.9997221811
0.9997103359
0.9996782278
0.9996512476
0.9996389405
0.999646794
0.999682372
0.9997427811
0.9998174773
0.9998958261
0.9999557221
0.9999857722
0.9999965732
0.9999994062
0.9999999346
0.9999999972
1
0.999194763
0.9775229913
0.9163978925
0.9824956014
0.9843950621
0.986456016
0.9887940643
0.9906777614
0.992081644
0.9932505802
0.994274163
0.9951150294
0.9957076147
0.9960595128
0.9962633294
0.9964531275
0.9968203446
0.9974659003
0.9981474372
0.9986640801
0.9989733861
0.9991185917
0.9991615781
0.9991554944
0.9990840069
0.9990306167
0.9990003648
0.9989924473
0.9990114358
0.9990740714
0.9991856737
0.9993326324
0.9995155435
0.9997348805
0.9999007395
0.9999741218
0.9999950629
0.9999993643
0.9999999689
1
0.9991477429
0.9770345035
0.9158479225
0.9770308853
0.979341446
0.9822435578
0.9852580816
0.9875827245
0.9893092839
0.9907055854
0.9918672937
0.9927826309
0.9934303953
0.9938582233
0.9941887419
0.9946080391
0.9953293015
0.9962811355
0.9971273631
0.9976994094
0.9980093046
0.9981430339
0.9981855903
0.9981932949
0.9982023379
0.9982774201
0.9983676701
0.9984513081
0.9985321934
0.9986340441
0.9987636285
0.9989105971
0.9990916927
0.9993501087
0.999679139
0.9999008456
0.9999794092
0.9999968421
0.999999799
1
0.9990872496
0.9764698393
0.9152367396
0.9711053745
0.9738392671
0.9775469475
0.9811920601
0.9839619031
0.9860056662
0.9875953288
0.9888562803
0.9898330492
0.9905586123
0.9911114516
0.991638098
0.9923526281
0.9933876226
0.9945221033
0.9954364321
0.9960373033
0.996385826
0.9965880241
0.9967452484
0.9969513458
0.9972686389
0.9976493462
0.9979784799
0.9982269216
0.9984108631
0.9985667709
0.9987172286
0.99887048
0.9990427395
0.999252736
0.9995141812
0.9997794873
0.9999424654
0.9999895884
0.9999991241
1
0.9989939998
0.9757395464
0.9144575563
0.9646741356
0.9677787908
0.9721552477
0.9763471872
0.9795575803
0.9819275695
0.9837231195
0.9851132389
0.986200582
0.9870613772
0.9877968193
0.9885667294
0.989558892
0.9907865125
0.9919744684
0.9928838684
0.9934968208
0.9939094936
0.9942399011
0.9946199656
0.9952137163
0.9960332059
0.996874917
0.9975701261
0.998068647
0.9983917362
0.9986048949
0.9987894606
0.9989887439
0.9991858301
0.9993840987
0.9995858279
0.9997670452
0.99989803
0.9999722257
0.9999967287
0.999999905
0.9988740744
0.9741894069
0.9135544052
0.9575723462
0.9609290863
0.9657082563
0.9702772018
0.9738843651
0.9766070609
0.9786896394
0.9803294167
0.9816543574
0.9827539516
0.9837389497
0.9847652624
0.9859655463
0.9872745945
0.9884352722
0.9892738481
0.9898081422
0.9901700027
0.9904870864
0.9909478278
0.9918235769
0.9931526727
0.9946145837
0.9959824892
0.9970912249
0.9978827993
0.9984104958
0.99877255
0.9990488246
0.9992755728
0.9994617607
0.9996137534
0.9997420593
0.9998564789
0.9999455265
0.9999912211
0.9999993429
0.998643502
0.9709660231
0.9125031342
0.949457207
0.9528583095
0.9576129153
0.9622116266
0.9660473351
0.9691144165
0.9716059416
0.9736999763
0.9754812167
0.9769907292
0.9783156206
0.9795966435
0.9809363894
0.982262281
0.9833517739
0.9840398236
0.9843084224
0.9843008318
0.9840547256
0.9839744186
0.9844674632
0.985801358
0.9876813848
0.9900814969
0.992426832
0.9944022041
0.9958726225
0.9968464626
0.9974120784
0.9976658173
0.9977222496
0.9976904888
0.9976844844
0.9983184765
0.9990681136
0.9997563958
0.9999962
0.9974064993
0.965345118
0.9110864347
0.9398919559
0.9429141334
0.9469150684
0.9508191884
0.9543800309
0.9575456344
0.9604327669
0.963148098
0.9656463762
0.9678041224
0.9695989073
0.9711391684
0.9725514255
0.9738240387
0.9747610072
0.9752164529
0.9752904096
0.9743913029
0.9726957933
0.9712240251
0.9702542419
0.9698747092
0.9702476028
0.9727756072
0.9760158245
0.9795610282
0.9826846507
0.9847247694
0.9855156612
0.9851397654
0.9827346718
0.9805452615
0.9793188424
0.9841379362
0.9900144221
0.9949074561
0.9977845003
0.9923278165
0.956918182
0.9089292231
0.9280167398
0.9300137663
0.9321948289
0.9338866832
0.9358006303
0.9380179843
0.9405234535
0.9433537267
0.9463751889
0.949168021
0.9514114898
0.9530895835
0.9543478491
0.9553023448
0.9559595785
0.9562257705
0.9561237516
0.9542821823
0.9510283672
0.9471843728
0.9429338158
0.9386680401
0.9352431314
0.9334276779
0.9329805949
0.9342258194
0.9364129211
0.9375732734
0.9337114628
0.9250490676
0.9118984899
0.8986943371
0.891429429
0.9140738746
0.9502125678
0.9729903511
0.9810423797
0.9815589454
0.9458351369
0.9053441043
0.9120102945
0.9120420285
0.9109755473
0.9080908195
0.9050759292
0.9031280688
0.9018815711
0.9013597173
0.9018863041
0.9029087366
0.9036760811
0.9039609165
0.9037403583
0.9028010554
0.9019103605
0.9009439119
0.8996400932
0.8975321637
0.8942178161
0.8893976232
0.8831254248
0.8755868771
0.8668247907
0.8573835317
0.8481214128
0.8393352012
0.8299594111
0.8170473766
0.7955374947
0.761013507
0.7148389252
0.6703508093
0.6465091764
0.6826047241
0.8112516636
0.9130782917
0.9563134356
0.9634974125
0.9332291567
0.8988328612
0.8890259025
0.8847512325
0.8772773123
0.8663080235
0.8529676671
0.8384232084
0.8236727759
0.8095036107
0.7965513255
0.7849281606
0.7742897741
0.7642591193
0.7544528822
0.7447117974
0.7351082312
0.7259468441
0.7178981907
0.7118684146
0.7081471185
0.7060027584
0.7046456854
0.7039844083
0.7030672768
0.6993729904
0.6931460034
0.6856308047
0.6737601402
0.6523034581
0.6143569895
0.5530657886
0.4727106126
0.3931206473
0.3410351087
0.3323475286
0.4898741454
0.7191228031
0.8897012416
0.9380506169
0.9184009754
0.885724371
0.7977332806
0.7756291935
0.7443512919
0.7158235054
0.6908813846
0.6661184166
0.6401317476
0.6120766007
0.5821599111
0.5507391627
0.5194687302
0.4901053327
0.4639327606
0.4409641256
0.4187541498
0.3958414849
0.3729455974
0.3525873825
0.3378043264
0.3309757902
0.3307842444
0.3387729809
0.3506784309
0.3650145273
0.3813496947
0.4002533747
0.4206701342
0.435652819
0.4398475002
0.4038981169
0.3476710164
0.2719016254
0.1929475376
0.1558583315
0.1711276273
0.3532371033
0.6609630025
0.8701779523
0.8981887343
0.8560853035
0.1929281783
0.1963772203
0.2009200693
0.209275715
0.2230626185
0.2403485098
0.2549214756
0.2642295864
0.2673162539
0.2638676304
0.2546506881
0.241990024
0.2275518385
0.2112450808
0.1929910825
0.1739986805
0.1547705924
0.1360559831
0.1188347084
0.1039285927
0.09200201044
0.0843025617
0.08111212387
0.08169193307
0.08814073054
0.1004768141
0.1215934314
0.1515180436
0.1856019966
0.2091375604
0.2135619877
0.1899733685
0.1538740479
0.1207137797
0.07324288424
0.07948031059
0.2574178685
0.6029535842
0.8125169387
0.7833408329
0.0003829599824
0.002493949157
0.00539754489
0.008029952813
0.01184365215
0.01760157453
0.02623011229
0.03659468831
0.0477139091
0.05831490504
0.06696277635
0.07322100172
0.07743133219
0.07802348453
0.07582281256
0.0710571032
0.06485173794
0.05802990683
0.05119351336
0.04465042436
0.0384402597
0.03300126156
0.02875083391
0.02501482194
0.01890342605
0.01207116613
0.01144836324
0.01482257943
0.02079126115
0.03229787055
0.047704364
0.06131532435
0.06639614336
0.05806715532
0.04562355957
0.02295760294
0.02479811969
0.1257610247
0.3290274025
0.4547519748
0.0002793064775
0.000216386308
0.0001840638453
0.0001401223103
0.0001200086366
0.0001458688957
0.0003165454694
0.0009812251936
0.002408778596
0.004345616058
0.00667607479
0.009344904761
0.01228635698
0.01513800894
0.01734724415
0.01875203723
0.01947778328
0.01942505291
0.01894081769
0.01791527257
0.01636557735
0.0145267556
0.01298059266
0.01261725204
0.01288204082
0.01266995346
0.01132192476
0.007713495291
0.002470253391
0.0002039344839
0.0001332376126
0.0005151587351
0.001421438395
0.003303278536
0.006534757578
0.005626677789
0.002301249219
0.0002381999611
1.063075201e-07
1.072746983e-07
0.000244486348
0.0001272895595
7.907800764e-05
5.172962587e-05
3.532845276e-05
3.637873839e-05
4.111958616e-05
5.503913358e-05
8.33020555e-05
0.0001263834792
0.0001960767847
0.0003368369401
0.0006344060764
0.001136426273
0.001740026485
0.002359025827
0.003000953289
0.003596944118
0.004065405643
0.004360530962
0.004426638281
0.00437831876
0.004398061954
0.004745007291
0.005947844137
0.008088759247
0.008278155687
0.006479745675
0.002449775098
0.0002274377475
2.835271128e-06
4.662535213e-08
1.566056396e-09
4.440064982e-10
5.301870054e-11
2.267597221e-11
1.83714155e-11
2.020972723e-09
1.056100635e-07
1.223074634e-07
0.0002287873083
9.788848537e-05
4.456344623e-05
1.646732217e-05
4.618276918e-06
3.932026735e-06
6.003789274e-06
1.240389296e-05
2.503785175e-05
4.396170742e-05
6.678073167e-05
9.624071013e-05
0.0001399214201
0.0002030442672
0.0002832385673
0.0003799327816
0.000496829787
0.0006363893982
0.0007928124092
0.0009595884366
0.001135663196
0.001339226387
0.001621661783
0.002083593161
0.002911144569
0.004223705296
0.004828794096
0.004021872064
0.001558308167
0.0001204658345
4.857539392e-07
1.387858717e-10
1.876276912e-14
0
0
0
0
0
0
0
0.0002165250625
8.273349336e-05
2.555464369e-05
4.25788394e-06
1.128150194e-07
4.674793519e-08
1.39069796e-07
8.321268425e-07
3.809919609e-06
1.238609068e-05
2.99688415e-05
5.49990327e-05
8.15397971e-05
0.0001094659124
0.0001410221528
0.0001757331214
0.0002121204597
0.00025244928
0.0002995230024
0.000358794083
0.000440423647
0.0005646391541
0.0007667550456
0.001091393793
0.001584266659
0.002147640228
0.002234910357
0.001525777174
0.0003929779317
1.282717711e-05
1.381847825e-08
1.907696223e-12
0
0
0
0
0
0
0
0
0.000207826876
7.210229844e-05
1.634578733e-05
1.580440598e-06
2.078746619e-09
4.445854795e-11
2.317046555e-10
5.192671182e-09
9.829918624e-08
9.956016984e-07
4.925860529e-06
1.369168306e-05
2.568058326e-05
3.72670554e-05
4.610356497e-05
5.255865252e-05
5.821584643e-05
6.459400784e-05
7.421531513e-05
9.107098095e-05
0.0001221327507
0.0001804413527
0.0002814209135
0.0004157933694
0.0005346920063
0.0005658459174
0.0004513863678
0.0001987984726
2.229751755e-05
1.068069453e-07
2.423816703e-11
2.109423747e-15
0
0
0
0
0
0
0
0
0.000201308853
6.538942031e-05
1.220101379e-05
1.012200554e-06
8.343803426e-10
4.146682997e-13
1.298960939e-13
2.375211139e-12
1.022839591e-10
5.209112142e-09
9.904967968e-08
6.067301128e-07
1.667882343e-06
2.881748052e-06
3.828402243e-06
4.443448435e-06
4.916636378e-06
5.587586662e-06
6.976859713e-06
9.983201018e-06
1.639839476e-05
2.84789441e-05
4.479445234e-05
5.579786157e-05
5.821399002e-05
4.156787367e-05
2.321918467e-05
5.318777708e-06
1.333292274e-07
7.644640476e-11
4.662936703e-15
0
0
0
0
0
0
0
0
0
0.0001959158588
6.119027808e-05
1.0138552e-05
8.448433626e-07
7.013070125e-10
4.339861803e-13
1.110223025e-15
7.771561172e-16
6.550315845e-15
3.093081347e-13
2.338318428e-11
4.497413553e-10
2.395716403e-09
5.246274859e-09
6.827455379e-09
8.66540073e-09
1.181481446e-08
1.816116124e-08
3.601346665e-08
9.567231696e-08
2.955372043e-07
7.882369729e-07
1.429444883e-06
1.713858187e-06
1.167158802e-06
4.987917068e-07
1.215466963e-07
8.353339243e-09
3.930211712e-11
5.218048216e-15
0
0
0
0
0
0
0
0
0
0
0.0001911589833
5.842052658e-05
9.01494333e-06
7.867987525e-07
7.27424343e-10
9.41136058e-13
1.665334537e-15
2.220446049e-16
0
0
5.551115123e-16
1.665334537e-14
1.044719866e-13
1.976196984e-13
1.367794766e-13
5.440092821e-15
2.109423747e-15
3.885780586e-15
9.769962617e-15
5.651035195e-14
9.152678615e-13
1.716349285e-11
1.169355723e-10
2.513530495e-10
1.937912053e-10
6.697864485e-11
1.512534542e-11
4.534150833e-13
1.33226763e-15
0
0
0
0
0
0
0
0
0
0
0
0.0001869308169
5.648357149e-05
8.46397416e-06
7.719205493e-07
1.192876131e-09
1.621924817e-12
3.330669074e-15
0
0
0
0
0
0
0
0
0
0
0
0
0
0
0
7.771561172e-16
2.997602166e-15
2.109423747e-15
5.551115123e-16
5.551115123e-16
0
0
0
0
0
0
0
0
0
0
0
0
0
0.000183344619
5.55342121e-05
8.31044107e-06
7.928070452e-07
2.098978102e-09
2.82562862e-12
5.107025913e-15
0
0
0
0
0
0
0
0
0
0
0
0
0
0
0
0
0
0
0
0
0
0
0
0
0
0
0
0
0
0
0
0
0
0.0001804872384
5.559411748e-05
8.39044653e-06
8.790960885e-07
3.452511277e-09
4.906075546e-12
1.043609643e-14
2.220446049e-16
0
0
0
0
0
0
0
0
0
0
0
0
0
0
0
0
0
0
0
0
0
0
0
0
0
0
0
0
0
0
0
0
0.000178325745
5.783339247e-05
8.814489021e-06
1.019482259e-06
5.388812507e-09
8.38140668e-12
1.82076576e-14
0
0
0
0
0
0
0
0
0
0
0
0
0
0
0
0
0
0
0
0
0
0
0
0
0
0
0
0
0
0
0
0
0
0.0001757426563
6.270334162e-05
9.682596185e-06
1.237241758e-06
8.076427638e-09
1.390776383e-11
3.064215548e-14
0
0
0
0
0
0
0
0
0
0
0
0
0
0
0
0
0
0
0
0
0
0
0
0
0
0
0
0
0
0
0
0
0
0.0001705314889
7.12225071e-05
1.106316783e-05
1.574132076e-06
1.16579566e-08
2.212974248e-11
4.884981308e-14
3.330669074e-16
0
0
0
0
0
0
0
0
0
0
0
0
0
0
0
0
0
0
0
0
0
0
0
0
0
0
0
0
0
0
0
0
0.0001612243516
8.596906333e-05
1.306255738e-05
2.084087767e-06
1.616761436e-08
3.335709486e-11
7.172040739e-14
0
0
0
0
0
0
0
0
0
0
0
0
0
0
0
0
0
0
0
0
0
0
0
0
0
0
0
0
0
0
0
0
0
0.0001470124984
0.0001081939078
1.579267089e-05
2.79415359e-06
2.140140432e-08
4.694267197e-11
9.958700531e-14
5.551115123e-16
0
0
0
0
0
0
0
0
0
0
0
0
0
0
0
0
0
0
0
0
0
0
0
0
0
0
0
0
0
0
0
0
0.000129888495
0.0001282243215
1.948738089e-05
3.623054211e-06
2.662209775e-08
5.982569995e-11
1.244560011e-13
2.220446049e-16
0
0
0
0
0
0
0
0
0
0
0
0
0
0
0
0
0
0
0
0
0
0
0
0
0
0
0
0
0
0
0
0
0.000113294355
0.000135322936
2.484280383e-05
4.352611389e-06
3.088424516e-08
6.914213646e-11
1.429967256e-13
3.330669074e-16
0
0
0
0
0
0
0
0
0
0
0
0
0
0
0
0
0
0
0
0
0
0
0
0
0
0
0
0
0
0
0
0
9.226582167e-05
0.0001353203805
3.223402458e-05
4.74319799e-06
3.33747594e-08
7.341494079e-11
1.495470414e-13
7.771561172e-16
0
0
0
0
0
0
0
0
0
0
0
0
0
0
0
0
0
0
0
0
0
0
0
0
0
0
0
0
0
0
0
0
5.495050027e-05
0.0001261245423
4.04835796e-05
4.672963662e-06
3.124514891e-08
6.317846246e-11
1.078026557e-13
0
0
0
0
0
0
0
0
0
0
0
0
0
0
0
0
0
0
0
0
0
0
0
0
0
0
0
0
0
0
0
0
0
1.654585484e-05
9.266056668e-05
4.535652709e-05
3.936581302e-06
1.954365403e-08
3.397337967e-11
4.94049246e-14
0
0
0
0
0
0
0
0
0
0
0
0
0
0
0
0
0
0
0
0
0
0
0
0
0
0
0
0
0
0
0
0
0
1.399113187e-06
3.969397141e-05
4.236718388e-05
2.52447946e-06
7.947359437e-09
1.132938188e-11
1.398881011e-14
2.220446049e-16
0
0
0
0
0
0
0
0
0
0
0
0
0
0
0
0
0
0
0
0
0
0
0
0
0
0
0
0
0
0
0
0
6.614063075e-09
5.67973148e-06
2.666969515e-05
8.36580879e-07
1.691710882e-09
2.070343896e-12
2.109423747e-15
0
0
0
0
0
0
0
0
0
0
0
0
0
0
0
0
0
0
0
0
0
0
0
0
0
0
0
0
0
0
0
0
0
0
7.767810195e-08
6.107211851e-06
1.037503212e-07
1.505967573e-10
1.639799407e-13
0
0
0
0
0
0
0
0
0
0
0
0
0
0
0
0
0
0
0
0
0
0
0
0
0
0
0
0
0
0
0
0
0
0
0
0
1.704280962e-07
2.634253371e-09
3.604339049e-12
3.885780586e-15
0
0
0
0
0
0
0
0
0
0
0
0
0
0
0
0
0
0
0
0
0
0
0
0
0
0
0
0
0
0
0
0
0
0
0
0
3.222108136e-10
7.372324973e-12
1.276756478e-14
0
0
0
0
0
0
0
0
0
0
0
0
0
0
0
0
0
0
0
0
0
0
0
0
0
0
0
0
0
0
0
0
0
0
0
0
0
3.241851232e-14
1.33226763e-15
0
0
0
0
0
0
0
0
0
0
0
0
0
0
0
0
0
0
0
0
0
0
0
0
0
0
0
0
0
0
0
0
0
0
0
0
0
0
0
0
0
0
0
0
0
0
0
0
0
0
0
0
0
0
0
0
0
0
0
0
0
0
0
0
0
0
0
0
0
0
0
0
0
0
0
0
0
0
0
0
0
0
0
0
0
0
0
0
0
0
0
0
0
0
0
0
0
0
0
0
0
0
0
0
0
0
0
0
0
0
0
0
0
0
0
0
0
0
0
0
0
0
0
0
0
0
0
0
0
0
0
0
0
0
0
0
0
0
0
0
0
0
0
0
0
0
0
0
0
0
0
0
0
0
0
0
0
0
0
0
0
0
0
0
0
0
0
0
0
0
0
0
0
0
0
0
0
0
0
0
0
0
0
0
0
0
0
0
0
0
0
0
0
0
0
0
0
0
0
0
0
0
0
0
0
0
0
0
0
0
0
0
0
0
0
0
0
0
0
0
0
0
0
0
0
0
0
0
0
0
0
0
0
0
0
0
0
0
0
0
0
0
0
0
0
0
0
0
0
0
0
0
0
0
0
0
0
0
0
0
0
0
0
0
0
0
0
0
0
0
0
0
0
0
0
0
0
0
0
0
0
0
0
0
0
0
0
0
0
0
0
0
0
0
0
0
0
0
0
0
0
0
0
0
0
0
0
0
0
0
0
0
0
0
0
0
0
0
0
0
0
0
0
0
0
0
0
0
0
0
0
0
0
0
0
0
0
0
0
0
0
0
0
0
0
0
0
0
0
0
0
0
0
0
0
0
0
0
0
0
0
0
0
0
0
0
0
0
0
0
0
0
0
0
0
0
0
0
0
0
0
0
0
0
0
0
0
0
0
0
0
0
0
0
0
0
0
0
0
0
0
0
0
0
0
0
0
0
0
0
0
0
0
0
0
0
0
0
0
0
0
0
0
0
0
0
0
0
0
0
0
0
0
0
0
0
0
0
0
0
0
0
0
0
0
0
0
0
0
0
0
0
0
0
0
0
0
0
0
0
0
0
0
0
0
0
0
0
0
0
0
0
0
0
0
0
0
0
0
0
0
0
0
0
0
0
0
0
0
0
0
0
0
0
0
0
0
0
0
0
0
0
0
0
0
0
0
0
0
0
0
0
0
0
0
0
0
0
0
0
0
0
0
0
0
0
0
0
0
0
0
0
0
0
0
0
0
0
0
0
0
0
0
0
0
0
0
0
0
0
0
0
0
0
0
0
0
0
0
0
0
0
0
0
0
0
0
0
0
0
0
0
0
0
0
0
0
0
0
0
0
0
0
0
0
0
0
0
0
0
0
0
0
0
0
0
0
0
0
0
0
0
0
0
0
0
0
0
0
0
0
0
0
0
0
0
0
0
0
0
0
0
0
0
0
0
0
0
0
0
0
0
0
0
0
0
0
0
0
0
0
0
0
0
0
0
0
0
0
0
0
0
0
0
0
0
0
0
0
0
0
0
0
0
0
0
0
0
0
0
0
0
0
0
0
0
0
0
0
0
0
0
0
0
0
0
0
0
0
0
0
0
0
0
0
0
0
0
0
0
0
0
0
0
0
0
0
0
0
0
0
0
0
0
0
0
0
0
0
0
0
0
0
0
0
0
0
0
0
0
0
0
0
0
0
0
0
0
0
0
0
0
0
0
0
0
0
0
0
0
0
0
0
0
0
0
0
0
0
0
0
0
0
0
0
0
0
0
0
0
0
0
0
0
0
0
0
0
0
0
0
0
0
0
0
0
0
0
0
0
0
0
0
0
0
0
0
0
0
0
0
0
0
0
0
0
0
0
0
0
0
0
0
0
0
0
0
0
0
0
0
0
0
0
0
0
0
0
0
0
0
0
0
0
0
0
0
0
0
0
0
0
0
0
0
0
0
0
0
0
0
0
0
0
0
0
0
0
0
0
0
0
0
0
0
0
0
0
0
0
0
0
0
0
0
0
0
0
0
0
0
0
0
0
0
0
0
0
0
0
0
0
0
0
0
0
0
0
0
0
0
0
0
0
0
0
0
0
0
0
0
0
0
0
0
0
0
0
0
0
0
0
0
0
0
0
0
0
0
0
0
0
0
0
0
0
0
0
0
0
0
0
0
0
0
0
0
0
0
0
0
0
0
0
0
0
0
0
0
0
0
0
0
0
0
0
0
0
0
0
0
0
0
0
0
0
0
0
0
0
0
0
0
0
0
0
0
0
0
0
0
0
0
0
0
0
0
0
0
0
0
0
0
0
0
0
0
0
0
0
0
0
0
0
0
0
0
0
0
0
0
0
0
0
0
0
0
0
0
0
0
0
0
0
0
0
0
0
0
0
0
0
0
0
0
0
0
0
0
0
0
0
0
0
0
0
0
0
0
0
0
0
0
0
0
0
0
0
0
0
0
0
0
0
0
0
0
0
0
0
0
0
0
0
0
0
0
0
0
0
0
0
0
0
0
0
0
0
0
0
0
0
0
0
0
0
0
0
0
0
0
0
0
0
0
0
0
0
0
0
0
0
0
0
0
0
0
0
0
0
0
0
0
0
0
0
0
0
0
0
0
0
0
0
0
0
0
0
0
0
0
0
0
0
0
0
0
0
0
0
0
0
0
0
0
0
0
0
0
0
0
0
0
0
0
0
0
0
0
0
0
0
0
0
0
0
0
0
0
0
0
0
0
0
0
0
0
0
0
0
0
0
0
0
0
0
0
0
0
0
0
0
0
0
0
0
0
0
0
0
0
0
0
0
0
0
0
0
0
0
0
0
0
0
0
0
0
0
0
0
0
0
0
0
0
0
0
0
0
0
0
0
0
0
0
0
0
0
0
0
0
0
0
0
0
0
0
0
0
0
0
0
0
0
0
0
)
;

boundaryField
{
    front
    {
        type            wedge;
    }
    back
    {
        type            wedge;
    }
    tankWall
    {
        type            zeroGradient;
    }
    bottom
    {
        type            zeroGradient;
    }
    top
    {
        type            zeroGradient;
    }
    axis
    {
        type            empty;
    }
}


// ************************************************************************* //
