/*--------------------------------*- C++ -*----------------------------------*\
| =========                 |                                                 |
| \\      /  F ield         | OpenFOAM: The Open Source CFD Toolbox           |
|  \\    /   O peration     | Version:  v1912                                 |
|   \\  /    A nd           | Website:  www.openfoam.com                      |
|    \\/     M anipulation  |                                                 |
\*---------------------------------------------------------------------------*/
FoamFile
{
    version     2.0;
    format      ascii;
    class       volScalarField;
    location    "1";
    object      alpha.gas_0;
}
// * * * * * * * * * * * * * * * * * * * * * * * * * * * * * * * * * * * * * //

dimensions      [0 0 0 0 0 0 0];


internalField   nonuniform List<scalar> 
4800
(
1.654155922e-161
7.657639189e-162
4.893617194e-162
3.525761668e-162
2.671573576e-162
2.064123904e-162
1.605721769e-162
1.255498026e-162
9.886361608e-163
7.858927301e-163
6.297066309e-163
5.047437238e-163
3.880927438e-163
6.923809419e-162
6.852491745e-161
8.396495655e-161
5.593022321e-161
2.604188906e-161
3.023940286e-161
2.537027733e-158
1.118810224e-155
2.384749935e-153
2.590305887e-151
6.031291029e-148
3.928998461e-148
8.567030311e-138
1.378737394e-137
5.654585254e-138
0
9.169170554e-109
0
1.295047066e-82
5.278957391e-81
1.303416933e-83
1.56327781e-66
2.052559941e-84
2.710381179e-54
0
5.837346179e-05
0.01067411953
1.894626886e-159
8.539269303e-160
5.490788655e-160
4.035208196e-160
3.143518973e-160
2.495492145e-160
1.993769535e-160
1.610349053e-160
1.324542089e-160
1.113901798e-160
9.52502747e-161
8.144984323e-161
6.653007259e-161
6.407268443e-160
7.271199848e-159
9.181083209e-159
6.289710362e-159
3.014312525e-159
2.102593733e-159
1.19836189e-156
4.885513479e-154
4.735483773e-152
1.851025292e-150
1.113178521e-146
1.051889606e-146
1.127383261e-147
1.988703563e-134
2.404545928e-134
2.721354401e-154
3.584662845e-106
3.285352164e-125
5.261407937e-82
5.295767936e-81
1.427875147e-83
6.828906279e-66
1.934170753e-85
1.245677975e-53
0
0.0002023211109
0.01535100069
1.051519361e-157
4.647091894e-158
3.044670363e-158
2.326144205e-158
1.90351591e-158
1.575155189e-158
1.303464083e-158
1.0958369e-158
9.499921365e-159
8.521499308e-159
7.796874973e-159
7.073490232e-159
6.06756695e-159
2.866823395e-158
3.578649333e-157
4.627990479e-157
3.245139942e-157
1.593674266e-157
8.213898456e-158
2.528420841e-155
9.745090344e-153
3.723966253e-151
9.08972329e-151
1.009056703e-144
6.698512394e-145
1.460946247e-159
1.367424393e-129
1.870507266e-129
0
1.164209531e-102
2.82371358e-121
1.690323798e-80
6.503457147e-99
2.00374527e-65
2.293848546e-63
7.018218034e-82
1.869518232e-51
1.690505227e-70
0.0004414189675
0.02079556008
4.051466819e-156
1.748330602e-156
1.190303393e-156
9.732552035e-157
8.599353075e-157
7.512302744e-157
6.457840922e-157
5.650006399e-157
5.153902715e-157
4.90300922e-157
4.741315e-157
4.486533208e-157
3.96881142e-157
9.150678952e-157
1.115558679e-155
1.470845242e-155
1.054485445e-155
5.30726234e-156
2.386918003e-156
3.251947154e-154
1.195458437e-151
1.845017247e-150
9.188222757e-151
2.321819122e-142
1.208799538e-142
4.034986735e-160
2.658650205e-125
1.153887753e-125
0
1.215665769e-99
0
4.453005328e-79
0
1.828792858e-62
4.557541724e-61
1.821819987e-79
2.588078323e-49
0
0.0007442648741
0.02587162502
1.320835985e-154
5.475138107e-155
3.953945379e-155
3.551484647e-155
3.440633913e-155
3.167464251e-155
2.802924366e-155
2.521376831e-155
2.38495606e-155
2.362902273e-155
2.365422021e-155
2.289637285e-155
2.054785571e-155
2.681771985e-155
2.500431056e-154
3.328225963e-154
2.434717685e-154
1.256243517e-154
5.426648678e-155
2.861418477e-153
9.972923459e-151
2.044397009e-149
9.263400467e-151
3.436395922e-141
1.704818198e-141
3.286219597e-161
1.633710534e-122
3.934454468e-123
0
3.481352754e-96
4.719406636e-115
7.089210307e-78
0
3.565796168e-60
3.678263893e-59
0
1.864893021e-47
1.924605925e-69
0.001089341793
0.03033225876
4.201872896e-153
1.63132619e-153
1.253291416e-153
1.236589837e-153
1.297077136e-153
1.236438344e-153
1.108387151e-153
1.008429937e-153
9.712664836e-154
9.827561296e-154
9.997384476e-154
9.757754187e-154
8.794233755e-154
8.328592112e-154
4.390214908e-153
5.755301377e-153
4.272377358e-153
2.259077053e-153
9.804619081e-154
1.835027312e-152
5.861912702e-150
6.861561013e-148
2.061940689e-150
4.508608685e-141
4.530754649e-141
8.825757435e-142
1.865164989e-121
1.23144498e-121
1.276011272e-140
2.796114302e-93
0
7.216956817e-77
0
1.801556804e-58
1.324693818e-57
2.324806037e-77
7.142956881e-46
2.674536304e-69
0.001431926838
0.03424416292
1.377532033e-151
4.914205237e-152
3.927302949e-152
4.140946126e-152
4.559517671e-152
4.407599019e-152
3.950139973e-152
3.59135629e-152
3.474229003e-152
3.538859673e-152
3.613582505e-152
3.528491531e-152
3.178958287e-152
2.644974084e-152
6.665286454e-152
8.100039593e-152
6.001628262e-152
3.240623275e-152
1.440662295e-152
9.002967511e-152
2.302957452e-149
1.778395143e-146
1.252018025e-146
1.580239469e-146
6.782294125e-139
3.881884499e-140
5.442723698e-142
1.676697858e-118
0
4.839516534e-91
0
4.61605104e-76
1.271067424e-94
3.011970453e-57
2.340286559e-56
1.182168299e-76
9.801693439e-45
2.901195479e-67
0.001876072146
0.03763678903
4.52087033e-150
1.480247868e-150
1.192494905e-150
1.292901365e-150
1.444462555e-150
1.394149056e-150
1.239761625e-150
1.119262819e-150
1.078875363e-150
1.097528555e-150
1.119067784e-150
1.091580874e-150
9.802026352e-151
7.783925735e-151
1.011013661e-150
1.02125772e-150
7.213122465e-151
3.917797162e-151
1.796002501e-151
3.619680118e-151
2.486014753e-149
1.942143228e-143
1.325378657e-144
8.826157082e-153
2.060353284e-136
9.79135809e-136
5.677619847e-152
3.306512357e-114
0
3.722025263e-89
1.428636698e-107
1.880442985e-75
1.271196507e-94
2.370541667e-56
2.661165387e-55
5.107122391e-74
1.715934418e-44
8.010802442e-65
0.002435421688
0.04060563049
1.396936442e-148
4.286640816e-149
3.374832327e-149
3.598938434e-149
3.980949748e-149
3.824688002e-149
3.361399384e-149
3.004502958e-149
2.884447125e-149
2.945008159e-149
3.025213188e-149
2.974598068e-149
2.640394277e-149
2.008407682e-149
1.716021864e-149
1.349129145e-149
8.374809657e-150
4.352229877e-150
2.052246432e-150
1.378954147e-150
9.214955485e-151
1.693324173e-139
1.165942913e-140
1.906357338e-153
7.204790053e-132
6.742830218e-133
5.606094038e-153
5.135297214e-110
0
2.166434718e-87
4.595819316e-106
7.814172584e-75
2.147328888e-94
1.07879391e-55
2.575713528e-54
0
1.718664824e-44
0
0.002997540234
0.0432621449
3.732775695e-147
1.115855281e-147
8.313373393e-148
8.419138541e-148
9.555134186e-148
9.478076598e-148
8.207299122e-148
7.247795871e-148
7.05922913e-148
7.50782747e-148
8.041501899e-148
8.140271674e-148
7.021500567e-148
4.77257137e-148
3.078069186e-148
2.041965027e-148
1.122131296e-148
4.991646541e-149
2.392761047e-149
6.132464903e-150
9.232379893e-151
2.988439435e-137
3.857537113e-138
1.341415039e-154
1.433634776e-126
7.257822115e-128
0
1.22453335e-106
0
9.580331183e-86
0
5.445712685e-74
0
4.216980646e-55
8.052333948e-54
3.016263603e-72
1.71538145e-44
0
0.003553674168
0.04566264295
7.731489997e-146
2.285223138e-146
1.588184242e-146
1.657123914e-146
2.491661739e-146
2.803729682e-146
2.385366943e-146
2.07733826e-146
2.11511156e-146
2.410714469e-146
2.669097427e-146
2.716618184e-146
2.314698462e-146
1.400361063e-146
5.760715696e-147
2.981039176e-147
1.795893e-147
6.482655712e-148
2.961282581e-148
2.99100484e-149
1.237733216e-149
2.31417046e-136
1.802514831e-135
1.113619664e-155
5.443374284e-122
2.715941025e-123
1.208031168e-141
5.012122468e-104
0
2.968014055e-84
0
2.604254067e-73
2.955326271e-92
1.540490746e-54
8.494595467e-54
3.466937232e-82
1.711508066e-44
0
0.004099603357
0.04785215919
1.449643195e-144
3.301776855e-145
2.518807431e-145
4.961454319e-145
1.522290819e-144
2.151309476e-144
1.805443725e-144
1.556479878e-144
1.749434113e-144
2.438086258e-144
3.397995209e-144
4.153874442e-144
3.039995104e-144
1.171785352e-144
2.271481651e-145
3.861442036e-146
2.509711992e-146
1.147991601e-146
3.667693161e-147
1.106439502e-150
3.742532731e-141
9.058039306e-150
1.133919462e-130
0
2.610288039e-119
2.402723348e-120
6.524141062e-140
7.613846021e-102
2.844121444e-122
3.574881161e-83
0
2.843420295e-73
4.052637843e-93
4.067920829e-54
8.501487902e-54
1.930197821e-52
0
1.420757707e-35
0.004638582317
0.04986654237
1.141539412e-139
1.202306674e-140
1.520511089e-140
5.681946648e-140
2.063417931e-139
2.940135194e-139
2.429782156e-139
2.068213446e-139
2.313376881e-139
3.219180329e-139
4.493059303e-139
5.525696113e-139
3.959088607e-139
1.505924486e-139
2.664521115e-140
1.966593059e-141
5.127969631e-143
7.253152431e-145
7.771446644e-146
3.8141643e-152
2.187321843e-136
2.570936497e-154
1.133719658e-126
1.688101812e-157
3.302942722e-118
8.605811932e-118
0
8.933513589e-100
8.492578133e-119
9.148026567e-83
0
2.839440246e-73
0
4.260962579e-54
0
4.742547593e-49
0
1.04116836e-06
0.005171755084
0.05173213808
1.632690063e-134
1.640448704e-135
2.003101415e-135
7.365448827e-135
2.651136646e-134
3.726042303e-134
3.032908629e-134
2.548308537e-134
2.819356654e-134
3.889917041e-134
5.420484484e-134
6.694648394e-134
4.700558428e-134
1.781129189e-134
3.125684156e-135
2.242199226e-136
5.601867922e-138
7.811289296e-140
7.701972295e-141
3.915160051e-152
2.947260425e-132
0
3.426068839e-124
2.486467554e-125
2.733595019e-137
7.370734987e-113
0
6.221600423e-98
1.831018064e-116
9.193895241e-83
1.020335306e-101
2.83820674e-73
0
4.255610717e-54
0
6.392522039e-48
0
4.546922891e-06
0.005702910531
0.05346918801
2.134110444e-129
2.047948344e-130
2.414049978e-130
8.727115108e-130
3.11221283e-129
4.312872189e-129
3.458109542e-129
2.867702552e-129
3.138248703e-129
4.294564191e-129
5.980134053e-129
7.41347168e-129
5.103837256e-129
1.926511287e-129
3.355402176e-130
2.337257106e-131
5.582724552e-133
7.849976653e-135
8.785657748e-136
5.082095256e-151
1.682943201e-129
1.031478766e-130
3.715426423e-123
1.447050106e-123
5.304637638e-142
6.503741197e-108
2.420646908e-126
1.551065775e-96
1.050440614e-115
9.19953142e-83
1.625484917e-101
2.8326243e-73
0
4.249899528e-54
2.343146772e-73
1.358402234e-47
1.184265893e-68
1.067830112e-05
0.006235800408
0.05509474294
2.560007416e-124
2.347983321e-125
2.671454955e-125
9.486567765e-125
3.351186813e-124
4.577673003e-124
3.616131877e-124
2.959209043e-124
3.203608262e-124
4.350512952e-124
6.059954315e-124
7.53466696e-124
5.091351163e-124
1.914061743e-124
3.309516377e-125
2.236391081e-126
5.095476217e-128
7.284679329e-130
9.270949e-131
0
8.528882788e-128
2.396630439e-129
4.221350583e-141
2.152236387e-119
0
2.642266085e-103
0
1.495396188e-95
1.762558829e-114
9.175605918e-83
0
2.827036322e-73
0
4.245471096e-54
1.915939638e-72
1.360733369e-47
1.112102259e-69
1.8990129e-05
0.006770352151
0.05662134226
2.828911735e-119
2.479713251e-120
2.722579607e-120
9.489355208e-120
3.321329758e-119
4.470782902e-119
3.480095541e-119
2.809860992e-119
3.009966577e-119
4.059115319e-119
5.661786431e-119
7.052486391e-119
4.684130423e-119
1.753383735e-119
3.009188196e-120
1.970662985e-121
4.273094025e-123
6.268180089e-125
8.943098816e-126
2.542094108e-126
1.638132331e-126
4.744657523e-127
0
1.307512584e-114
0
2.683786353e-100
8.508554566e-119
6.676871341e-95
1.543808087e-113
9.141217177e-83
0
2.817246812e-73
0
3.811306309e-54
0
1.360544832e-47
3.154688614e-68
2.904946494e-05
0.007305058667
0.05805831708
2.889616765e-114
2.41859575e-115
2.561372899e-115
8.758301862e-115
3.039254902e-114
4.030129228e-114
3.091936175e-114
2.462679081e-114
2.611185311e-114
3.499602507e-114
4.892688213e-114
6.096176378e-114
3.98701088e-114
1.485552582e-114
2.52917073e-115
1.603384598e-116
3.301119959e-118
5.019305184e-120
8.082716533e-121
2.467859986e-121
5.925856364e-122
7.84157915e-123
0
7.456911878e-111
1.816880432e-129
1.100470337e-98
7.221214074e-115
1.514933074e-94
1.009478377e-112
9.112947409e-83
0
2.702331215e-73
0
2.451228613e-54
7.719992617e-73
1.360293519e-47
7.900203269e-72
4.048498004e-05
0.007838155542
0.0594154632
2.736414486e-109
2.183830454e-110
2.229092654e-110
7.477631073e-110
2.575190315e-109
3.362236261e-109
2.543097156e-109
1.997793234e-109
2.097450959e-109
2.795908224e-109
3.920750514e-109
4.876885333e-109
3.147438651e-109
1.167026402e-109
1.969184713e-110
1.207014317e-111
2.354339305e-113
3.753128976e-115
6.834076109e-116
2.219786588e-116
5.481476093e-117
7.460711393e-118
0
1.51698898e-108
5.529116138e-142
3.454501891e-98
1.158368334e-95
2.026451177e-94
4.629673812e-113
9.064526783e-83
4.627587243e-101
2.112639041e-73
1.92870701e-92
9.162050857e-55
0
1.297964601e-47
1.243804335e-70
5.311821965e-05
0.008369087209
0.06070215742
2.407746367e-104
1.829719734e-105
1.79813864e-105
5.920487663e-105
2.025516639e-104
2.601914815e-104
1.94092231e-104
1.503686742e-104
1.563737601e-104
2.074558122e-104
2.919149581e-104
3.616521425e-104
2.308671766e-104
8.517386477e-105
1.422605703e-105
8.419594857e-107
1.552754766e-108
2.628938302e-110
5.419962756e-111
1.874558367e-111
4.764079139e-112
6.683900402e-113
9.669049023e-128
1.924042302e-107
4.670905251e-108
0
8.04830635e-91
2.034119066e-91
0
7.930971842e-83
3.665399914e-101
1.099351256e-73
1.060416726e-92
1.533459007e-55
0
9.012777333e-48
0
6.6872612e-05
0.008897652233
0.06192666981
1.971031618e-99
1.42575667e-100
1.347273268e-100
4.357578442e-100
1.48189003e-99
1.870850361e-99
1.377036511e-99
1.05210194e-99
1.084077893e-99
1.431970372e-99
2.021974789e-99
2.488932871e-99
1.575638943e-99
5.783884913e-100
9.547393945e-101
5.447571854e-102
9.482409359e-104
1.730377526e-105
4.042152708e-106
1.489276424e-106
3.898888912e-107
5.586214153e-108
3.57744257e-109
3.473558769e-107
4.594619181e-107
8.93112101e-126
4.471093055e-86
1.073574083e-86
0
4.644119771e-83
1.851808016e-94
2.914153203e-74
2.833518531e-93
8.260398719e-57
0
3.399444089e-48
7.643334316e-67
8.166616043e-05
0.009423341286
0.0630950547
1.501724117e-94
1.035101247e-95
9.396640799e-96
2.987649947e-95
1.009726992e-94
1.251085121e-94
9.091949283e-95
6.851857959e-95
6.996975686e-95
9.203911916e-95
1.303989135e-94
1.591186493e-94
1.00164103e-94
3.65886921e-95
5.957261549e-96
3.27085446e-97
5.366440916e-99
1.073391976e-100
2.841455886e-101
1.114960097e-101
3.009964151e-102
4.343826051e-103
2.990826496e-104
7.02829413e-106
4.683291404e-103
4.543438408e-122
3.199920674e-82
7.086946088e-83
1.750570249e-84
4.81653946e-101
5.933356299e-75
6.218450854e-75
7.437276378e-95
1.006726948e-58
7.547318291e-78
5.001004217e-49
0
9.738487157e-05
0.009946087289
0.06421028291
1.064569316e-89
7.00981962e-91
6.11256363e-91
1.910856282e-90
6.410562056e-90
7.783194601e-90
5.588754355e-90
4.155924066e-90
4.206865159e-90
5.510971787e-90
7.833879916e-90
9.458789974e-90
5.937181089e-90
2.158589498e-90
3.458101203e-91
1.822572973e-92
2.815627711e-94
6.292449152e-96
1.886417741e-96
7.875180818e-97
2.194656822e-97
3.193041307e-98
2.200912748e-99
6.099487558e-101
6.506438379e-99
1.710052444e-117
9.294039462e-80
2.184842399e-80
7.722278344e-82
1.569267121e-85
8.115648093e-74
3.299271762e-74
0
2.012201574e-61
4.096880332e-80
1.954132544e-50
0
0.0001151412283
0.01046506343
0.06527464556
7.019028837e-85
4.429509141e-86
3.713490655e-86
1.140634034e-85
3.791252732e-85
4.503651751e-85
3.197777207e-85
2.347695352e-85
2.356292478e-85
3.074428102e-85
4.386552785e-85
5.234692352e-85
3.285407531e-85
1.189054004e-85
1.868528064e-86
9.421822407e-88
1.369436054e-89
3.494038498e-91
1.184481586e-91
5.251095505e-92
1.512236721e-92
2.221674176e-93
1.535077932e-94
4.580093265e-96
1.240882367e-95
5.237257088e-114
1.647910879e-78
8.353460223e-79
8.633649026e-80
0
8.156246751e-74
3.489096865e-74
0
5.00107734e-65
7.526658431e-81
1.393870865e-52
5.730752993e-72
0.0001347349389
0.01098010172
0.06629270069
4.305173372e-80
2.610303157e-81
2.107536228e-81
6.351110249e-81
2.087438741e-80
2.423196105e-80
1.702539035e-80
1.234857741e-80
1.229321794e-80
1.598401645e-80
2.291382796e-80
2.701490766e-80
1.699782381e-80
6.123724462e-81
9.403594561e-82
4.516090943e-83
6.170711482e-85
1.840725639e-86
7.039593418e-87
3.305723484e-87
9.846958809e-88
1.464515228e-88
1.016993563e-89
3.180646028e-91
1.033638991e-92
0
2.718591468e-78
1.455250559e-75
5.343446404e-76
2.743324002e-77
1.234785996e-91
5.375654986e-70
4.791489481e-68
3.227259112e-84
6.021917172e-58
1.389113243e-55
0
0.0001559033235
0.0114911577
0.06726958822
2.459817875e-75
1.432934441e-76
1.116342701e-76
3.294495946e-76
1.069665653e-75
1.212560514e-75
8.433943082e-76
6.047309429e-76
5.974847306e-76
7.750276219e-76
1.118174748e-75
1.302742888e-75
8.236465556e-76
2.952585732e-76
4.410595189e-77
2.005665158e-78
2.573595151e-80
9.207116465e-82
3.960471736e-82
1.964178102e-82
6.05587665e-83
9.148711604e-84
6.407616017e-85
2.024919053e-86
2.992261551e-88
2.098970452e-90
6.142051119e-97
7.415439201e-71
2.750195034e-71
1.412678749e-72
1.232387005e-91
8.071747349e-66
6.166808664e-66
5.790157157e-84
1.388672363e-57
2.286939558e-57
0
0.0001783862916
0.01199883115
0.0682106065
1.312603499e-70
7.319418396e-72
5.507541143e-72
1.590029031e-71
5.103947514e-71
5.649018139e-71
3.890062241e-71
2.75901881e-71
2.707536391e-71
3.510130083e-71
5.107024212e-71
5.882929923e-71
3.744020685e-71
1.334230136e-71
1.928951727e-72
8.246606329e-74
9.923557294e-76
4.371715148e-77
2.108584362e-77
1.101086698e-77
3.514981244e-78
5.414488229e-79
3.841799913e-80
1.227392028e-81
1.799735111e-83
1.148389612e-85
0
3.392612691e-66
1.266356275e-66
6.310585103e-68
4.432374025e-86
3.91837767e-63
5.385943465e-63
2.635317484e-84
4.027690143e-57
4.297210968e-57
1.196203873e-78
0.0002017529547
0.01250340802
0.06911990628
6.562326619e-66
3.477430027e-67
2.525493836e-67
7.136348451e-67
2.271479965e-66
2.4553594e-66
1.673501568e-66
1.174617648e-66
1.146031211e-66
1.48831991e-66
2.187314045e-66
2.492129334e-66
1.598186657e-66
5.652501247e-67
7.866005475e-68
3.136181941e-69
3.534209009e-71
1.968830098e-72
1.062054354e-72
5.823040816e-73
1.924509858e-73
3.034313128e-74
2.191846279e-75
7.111461233e-77
1.041609295e-78
6.641674831e-81
0
1.368161038e-62
5.97009874e-63
4.318959141e-64
5.090211114e-82
1.789029917e-61
7.681191605e-61
0
8.976537639e-56
5.334041632e-56
3.111546942e-79
0.0002258663033
0.01300496966
0.06999781268
3.081293512e-61
1.537848963e-62
1.075135396e-62
2.98173987e-62
9.453220844e-62
9.98479194e-62
6.731818171e-62
4.677970942e-62
4.542877069e-62
5.923117366e-62
8.79667807e-62
9.910715422e-62
6.40543762e-62
2.243058745e-62
2.987830872e-63
1.101683628e-64
1.162060663e-66
8.402150144e-68
5.062015898e-68
2.906978781e-68
9.941485947e-69
1.60969777e-69
1.18924565e-70
3.936823177e-72
5.784796886e-74
3.711835661e-76
8.42176741e-95
2.751965322e-60
1.418684147e-60
1.719775299e-61
2.36607677e-63
2.212880291e-60
2.178253417e-59
0
1.30289821e-55
1.302327796e-55
6.206358996e-77
0.0002530956616
0.01350073774
0.07084256633
1.359073205e-56
6.343097138e-58
4.252567054e-58
1.163221747e-57
3.688547246e-57
3.808307875e-57
2.538346534e-57
1.747371704e-57
1.690945455e-57
2.216802998e-57
3.321959445e-57
3.697033098e-57
2.406560799e-57
8.317825347e-58
1.054593952e-58
3.567104644e-60
3.529591211e-62
3.397035356e-63
2.286036198e-63
1.372169015e-63
4.851294615e-64
8.087712015e-65
6.132463171e-66
2.079249097e-67
3.081850474e-69
2.011401244e-71
7.401512692e-90
4.75892057e-59
3.409399321e-59
7.899944597e-60
2.852914964e-61
1.536307786e-59
9.132634429e-59
0
1.209495018e-55
7.307496223e-55
5.861710743e-76
0.0002812854309
0.01399140043
0.07165557229
5.614363701e-52
2.445881195e-53
1.567741234e-53
4.254349771e-53
1.351110535e-52
1.36372583e-52
8.982344971e-53
6.131363627e-53
5.919498436e-53
7.804471071e-53
1.175882668e-52
1.290527506e-52
8.45062323e-53
2.87216806e-53
3.445497215e-54
1.06091315e-55
9.923968097e-58
1.302777494e-58
9.806357059e-59
6.139770952e-59
2.241638845e-59
3.855281688e-60
3.00519856e-61
1.045463565e-62
1.572291553e-64
1.062251002e-66
5.858544868e-83
1.289320069e-58
2.924411567e-58
1.750295795e-58
2.788967931e-59
4.234070776e-59
1.037101932e-58
1.133386711e-57
1.13132787e-57
1.400904296e-51
1.294629456e-72
0.0003098622386
0.0144770056
0.07243972606
2.159513487e-47
8.827008623e-49
5.412526849e-49
1.463817763e-48
4.640055582e-48
4.579293664e-48
2.978512028e-48
2.019622498e-48
1.947647489e-48
2.57948536e-48
3.887690779e-48
4.200328289e-48
2.763874315e-48
9.199742759e-49
1.036772672e-49
2.883200955e-51
2.594160616e-53
4.753433331e-54
4.008781686e-54
2.611459793e-54
9.837894838e-55
1.748856289e-55
1.401233687e-56
4.993915044e-58
7.657344938e-60
5.491351849e-62
1.769352422e-64
0
3.097551014e-54
2.037224242e-54
4.713673047e-55
2.393288009e-56
3.026501571e-58
2.649116755e-56
1.148894455e-57
7.70920934e-49
0
0.0003385781111
0.01495843329
0.07319892766
7.675051403e-43
2.97655524e-44
1.757194549e-44
4.741187486e-44
1.48733651e-43
1.436316385e-43
9.219983551e-44
6.223116228e-44
6.002879375e-44
7.97021963e-44
1.194829723e-43
1.270061764e-43
8.399242881e-44
2.726447392e-44
2.858617119e-45
7.108092674e-47
6.35392109e-49
1.657099655e-49
1.566288488e-49
1.057638434e-49
4.112220985e-50
7.577800622e-51
6.233941367e-52
2.263833172e-53
3.545176585e-55
2.547456846e-57
8.268447354e-60
0
8.429622892e-50
5.728925206e-50
1.492291849e-50
8.836417403e-52
7.737817097e-54
3.931021009e-55
1.13132787e-57
1.074313308e-46
2.323540037e-67
0.0003665447238
0.01543618677
0.07393809237
2.500247049e-38
9.33011027e-40
5.368109513e-40
1.440441532e-39
4.421813567e-39
4.183025404e-39
2.648705388e-39
1.783489386e-39
1.723671378e-39
2.289322927e-39
3.397012532e-39
3.561993486e-39
2.373357456e-39
7.480777397e-40
7.195163982e-41
1.575326937e-42
1.47712759e-44
5.54060109e-45
5.856406618e-45
4.073885845e-45
1.639301339e-45
3.145884428e-46
2.656522121e-47
9.748658151e-49
1.553867076e-50
1.132240477e-52
3.653562212e-55
0
2.215614244e-45
1.606395679e-45
4.716001889e-46
3.325551742e-47
3.589470059e-49
5.245150819e-52
1.148894455e-57
5.340173102e-45
1.000303687e-77
0.0003938003036
0.01591056155
0.07466051194
7.444110763e-34
2.696354838e-35
1.536098499e-35
4.074994234e-35
1.210290378e-34
1.123481031e-34
7.014774785e-35
4.72146119e-35
4.580837881e-35
6.075430449e-35
8.912504417e-35
9.298856748e-35
6.271516756e-35
1.909750611e-35
1.651593077e-36
3.106284632e-38
3.321630475e-40
1.774326205e-40
2.092889325e-40
1.489483181e-40
6.226761935e-41
1.251864084e-41
1.087924044e-42
4.001854379e-44
6.432253689e-46
4.797772452e-48
1.57409997e-50
0
1.327023403e-41
1.223356148e-41
5.273442047e-42
6.272419559e-43
1.266183265e-44
3.109816949e-47
1.166461042e-57
1.245990718e-43
0
0.0004211411794
0.01638014471
0.07536481631
2.038983201e-29
7.121337571e-31
4.080937942e-31
1.063755474e-30
3.028536523e-30
2.764365789e-30
1.701720133e-30
1.146925362e-30
1.119568095e-30
1.48233888e-30
2.166721471e-30
2.283736119e-30
1.565079863e-30
4.569055657e-31
3.461402207e-32
5.388866426e-34
7.384811791e-36
5.409166852e-36
7.101894777e-36
5.159848311e-36
2.246108708e-36
4.759570531e-37
4.283453128e-38
1.574275835e-39
2.517487583e-41
1.928479034e-43
6.643862004e-46
3.432509752e-64
5.888036197e-39
6.553873766e-39
3.713786574e-39
6.682646124e-40
2.333734158e-41
1.108860289e-43
4.460568319e-46
1.637524506e-42
5.905255211e-62
0.0004531281918
0.0168381611
0.07604799378
5.246089849e-25
1.703921435e-26
9.953476925e-27
2.538405388e-26
6.887057365e-26
6.235445455e-26
3.761524197e-26
2.540980621e-26
2.501444302e-26
3.341227255e-26
4.956948212e-26
5.36024608e-26
3.722909567e-26
1.027810764e-26
6.612228478e-28
8.108526293e-30
1.647659336e-31
1.559459701e-31
2.268776293e-31
1.682632412e-31
7.650969338e-32
1.71754724e-32
1.614609782e-33
5.962403519e-35
9.37150778e-37
7.332875416e-39
2.781013802e-41
1.364999805e-58
2.741416714e-37
3.703774896e-37
2.484274899e-37
6.427723379e-38
3.918060314e-39
3.721542978e-41
5.949369225e-44
1.341169376e-41
0
0.0004847938413
0.01728802787
0.07670999853
1.283846925e-20
3.66095599e-22
2.206234691e-22
5.49588058e-22
1.445090072e-21
1.310097198e-21
7.673676626e-22
5.132234128e-22
5.13512223e-22
7.078989062e-22
1.088517835e-21
1.211890149e-21
8.423305444e-22
2.152724872e-22
1.13361155e-23
1.029116008e-25
3.679913255e-27
4.217324688e-27
6.765256229e-27
5.132205217e-27
2.446265088e-27
5.832457645e-28
5.775887612e-29
2.175936951e-30
3.353926184e-32
2.644519322e-34
1.181475847e-36
2.395592412e-39
1.996971142e-36
3.4563987e-36
2.857147574e-36
1.281098624e-36
1.945886124e-37
6.007869759e-39
2.344374376e-41
7.687519572e-41
4.462043887e-73
0.0005154445694
0.01773150162
0.07735196994
2.973782806e-16
6.937216159e-18
4.398517506e-18
1.070896273e-17
2.924763854e-17
2.673533665e-17
1.507921416e-17
9.88903072e-18
1.010973685e-17
1.464099882e-17
2.32213445e-17
2.627993668e-17
1.791015989e-17
4.110336304e-18
1.676615225e-19
1.025265101e-21
7.998819022e-23
1.076935528e-22
1.862565145e-22
1.456933274e-22
7.30596161e-23
1.848227496e-23
1.939767888e-24
7.616864364e-26
1.169502826e-27
9.142612605e-30
4.265149157e-32
1.137419969e-34
5.443067066e-36
2.967848113e-35
4.933316893e-35
3.602682437e-35
1.061609602e-35
7.161631139e-37
6.670762374e-39
3.605847104e-40
8.297577107e-61
0.0005439635338
0.01816853014
0.07797539946
3.173188578e-12
1.127472885e-13
7.859253771e-14
1.875586557e-13
4.297833532e-13
3.733901168e-13
2.1930354e-13
1.521587693e-13
1.558319732e-13
2.036405073e-13
2.654030441e-13
2.515443215e-13
1.360815132e-13
2.58302851e-14
9.286908094e-16
6.46276134e-18
1.643670303e-18
2.576856346e-18
4.694351098e-18
3.826883476e-18
2.025944264e-18
5.420678656e-19
6.053226724e-20
2.536505975e-21
4.020938014e-23
3.085563026e-25
1.485354226e-27
4.227843704e-30
8.242182673e-33
4.341728409e-31
9.303661391e-31
7.308014339e-31
2.432267041e-31
1.905960768e-32
2.094428382e-34
2.673698064e-37
5.649830645e-58
0.0005736372541
0.01860187774
0.07858162652
3.209368677e-09
2.274183861e-10
1.980790034e-10
3.841956912e-10
6.379395733e-10
5.266124842e-10
3.307193762e-10
2.481715999e-10
2.473044201e-10
2.819353925e-10
3.00367717e-10
2.382301785e-10
1.067831631e-10
1.93363408e-11
8.723585362e-13
3.761348469e-14
3.133604601e-14
5.72339035e-14
1.074206213e-13
9.241857394e-14
5.171991358e-14
1.456460189e-14
1.736458442e-15
7.952631256e-17
1.369345159e-18
1.031775656e-20
5.124342705e-23
1.543599732e-25
3.107418007e-28
1.241998961e-27
3.874499807e-27
3.682604386e-27
1.911256385e-27
3.172588955e-28
9.813144997e-30
3.478109548e-32
0
0.0005988933056
0.01903137007
0.07917365134
4.566613859e-07
6.371392534e-08
6.299866478e-08
1.010685838e-07
1.292667787e-07
1.024264699e-07
6.919199923e-08
5.512858827e-08
5.253746956e-08
5.255619972e-08
4.7044849e-08
3.16943805e-08
1.288895847e-08
2.662344771e-09
2.410942209e-10
7.716316028e-11
9.906695572e-11
1.827140471e-10
2.719991835e-10
2.353144393e-10
1.348897511e-10
4.387493097e-11
7.324866982e-12
5.820579274e-13
2.072717607e-14
3.122693858e-16
1.945248583e-18
6.060308879e-21
1.45952674e-23
6.875166687e-25
1.173646466e-24
1.450934673e-24
1.081196944e-24
3.554046316e-25
2.930873268e-26
3.208272947e-28
7.226564903e-49
0.0006207775822
0.01946258086
0.07975524408
1.400296868e-05
3.566142042e-06
3.719194087e-06
5.019692783e-06
5.272904377e-06
4.066611845e-06
2.943756209e-06
2.425583279e-06
2.186943226e-06
1.937624902e-06
1.499392783e-06
9.016573491e-07
3.729396585e-07
1.064205203e-07
2.743559299e-08
2.478062974e-08
3.608750782e-08
5.764326817e-08
6.756484297e-08
5.491254826e-08
3.058949101e-08
1.097664966e-08
2.390207127e-09
2.946266866e-10
1.898074992e-11
5.85099612e-13
8.09923704e-15
5.564927725e-17
2.624717909e-19
1.046450577e-21
1.256900595e-22
1.086440301e-22
8.553598898e-23
4.041235834e-23
6.503699586e-24
1.723866487e-25
1.226977092e-45
0.0006419024136
0.01988815956
0.0803284008
0.0001437758928
5.812864567e-05
6.081079402e-05
7.073338711e-05
6.492823743e-05
4.953035459e-05
3.785715703e-05
3.141676055e-05
2.665847284e-05
2.129638445e-05
1.485625468e-05
8.607195637e-06
4.10361464e-06
1.862229571e-06
1.198957639e-06
1.483954489e-06
2.077032392e-06
2.622172377e-06
2.463973228e-06
1.76642977e-06
9.271829752e-07
3.51758973e-07
9.216047325e-08
1.553657706e-08
1.545459278e-09
8.308496075e-11
2.266398684e-12
3.310904479e-14
2.923795044e-16
1.769112728e-18
1.389948871e-20
3.626575825e-21
2.231874886e-21
1.103675939e-21
2.516889598e-22
1.232669907e-23
6.71626658e-44
0.0006679424624
0.02031233369
0.08089233107
0.0007164011705
0.0003982678922
0.0004054219931
0.0004182888463
0.0003529424771
0.0002711357891
0.0002141680147
0.0001757035895
0.0001408143902
0.0001041893761
6.938425553e-05
4.22573948e-05
2.570533551e-05
1.832121032e-05
1.867073429e-05
2.32905727e-05
2.74993142e-05
2.689894197e-05
2.078978254e-05
1.282097639e-05
6.281714061e-06
2.427826746e-06
7.116224241e-07
1.47783418e-07
2.013633628e-08
1.699809364e-09
8.588910089e-11
2.579111486e-12
4.545740827e-14
6.364172548e-16
4.09403578e-17
1.089307676e-17
3.541500762e-18
8.565763478e-19
1.077232803e-19
3.772954184e-21
0
0.0006954311165
0.0207294519
0.08144634932
0.002158411434
0.001502076902
0.001468320501
0.001377960118
0.001118505428
0.0008812012746
0.0007111562158
0.0005752317529
0.0004438211931
0.000317694836
0.0002147681777
0.0001480564863
0.0001163232097
0.000108444803
0.0001222337535
0.0001344962538
0.0001283122636
0.0001003074002
6.519512494e-05
3.58864788e-05
1.663520909e-05
6.493644886e-06
2.097273003e-06
5.354585363e-07
1.034735025e-07
1.558447692e-08
2.300333952e-09
3.470130894e-10
3.917859219e-11
8.09144094e-12
2.474114652e-12
7.715589339e-13
2.076851029e-13
4.028411084e-14
4.292000659e-15
1.375591807e-16
6.272724827e-35
0.000715778596
0.02115291532
0.08199242494
0.004670285693
0.003705333634
0.003480001572
0.003059405999
0.002463038362
0.00199012637
0.001628622875
0.001309499235
0.001003757521
0.0007361706846
0.0005428839043
0.0004366030299
0.0004014977447
0.0004068410327
0.0004283616466
0.0004016634971
0.0003150354905
0.000209032747
0.000121340598
6.362255034e-05
3.035114922e-05
1.330268815e-05
5.786010121e-06
2.794115761e-06
1.67312508e-06
1.133626821e-06
7.064496558e-07
3.485384058e-07
1.090778256e-07
3.369406426e-08
1.023667637e-08
2.96008968e-09
7.262218551e-10
1.296082004e-10
1.393631633e-11
5.163834295e-13
2.521703038e-31
0.0007421695499
0.02158325761
0.08253230963