/*--------------------------------*- C++ -*----------------------------------*\
| =========                 |                                                 |
| \\      /  F ield         | OpenFOAM: The Open Source CFD Toolbox           |
|  \\    /   O peration     | Version:  v1912                                 |
|   \\  /    A nd           | Website:  www.openfoam.com                      |
|    \\/     M anipulation  |                                                 |
\*---------------------------------------------------------------------------*/
FoamFile
{
    version     2.0;
    format      ascii;
    class       volScalarField;
    location    "1";
    object      alphat.gas;
}
// * * * * * * * * * * * * * * * * * * * * * * * * * * * * * * * * * * * * * //

dimensions      [1 -1 -1 0 0 0 0];


internalField   nonuniform List<scalar> 
4800
(
2.705086026e-08
5.588577824e-08
7.845127902e-08
9.824366538e-08
1.167453371e-07
1.34771045e-07
1.528692115e-07
1.714463471e-07
1.908171581e-07
2.11227926e-07
2.328684855e-07
2.558790258e-07
2.803545196e-07
3.063482745e-07
3.338754428e-07
3.629169495e-07
3.93424079e-07
4.253238106e-07
4.585249012e-07
4.929246495e-07
5.284162365e-07
5.6489652e-07
6.022741625e-07
6.404779832e-07
6.794653073e-07
7.192306439e-07
7.598154767e-07
8.013167127e-07
8.438967418e-07
8.87789765e-07
9.333262579e-07
9.810270293e-07
1.03073962e-06
1.087059589e-06
1.135564612e-06
1.225146213e-06
1.23729019e-06
1.457364683e-06
9.961764303e-07
2.031514217e-06
4.172692054e-08
8.586645007e-08
1.200328922e-07
1.492294958e-07
1.752971408e-07
1.991165938e-07
2.212022772e-07
2.418894403e-07
2.614126839e-07
2.799450877e-07
2.976199338e-07
3.145437206e-07
3.308043977e-07
3.464768058e-07
3.616263783e-07
3.763117052e-07
3.905863149e-07
4.044998994e-07
4.180991372e-07
4.314282223e-07
4.445291891e-07
4.574421051e-07
4.702051972e-07
4.828549725e-07
4.95426381e-07
5.079527078e-07
5.204660567e-07
5.329970906e-07
5.455827092e-07
5.582198558e-07
5.710960579e-07
5.835636445e-07
5.981786668e-07
6.06427049e-07
6.336143713e-07
6.115702516e-07
6.960518455e-07
5.815912519e-07
1.07067724e-06
2.870092263e-06
4.047670073e-08
8.320910929e-08
1.162937094e-07
1.44583059e-07
1.698664809e-07
1.930006788e-07
2.144858776e-07
2.346477027e-07
2.537131376e-07
2.718484409e-07
2.891800897e-07
3.058072528e-07
3.218096585e-07
3.372527839e-07
3.52191402e-07
3.666720775e-07
3.807349639e-07
3.944151212e-07
4.077434952e-07
4.207476542e-07
4.334523454e-07
4.458799206e-07
4.580506633e-07
4.699830443e-07
4.816939241e-07
4.93198685e-07
5.045115033e-07
5.156449349e-07
5.266142795e-07
5.374110472e-07
5.481563361e-07
5.583034831e-07
5.704080653e-07
5.740412771e-07
6.067347779e-07
5.48667001e-07
7.129425087e-07
3.183599214e-07
7.502495369e-07
3.261607121e-06
4.059333957e-08
8.347921817e-08
1.166898337e-07
1.450860487e-07
1.704621405e-07
1.936771359e-07
2.152326866e-07
2.354554155e-07
2.545730993e-07
2.7275267e-07
2.901212169e-07
3.067784939e-07
3.22804804e-07
3.382661944e-07
3.532180024e-07
3.677073445e-07
3.817749024e-07
3.954562288e-07
4.087827135e-07
4.217823081e-07
4.34480075e-07
4.468986092e-07
4.590583677e-07
4.709779347e-07
4.826742428e-07
4.941627742e-07
5.054577785e-07
5.165725325e-07
5.275196847e-07
5.383092432e-07
5.489744895e-07
5.593646944e-07
5.705330707e-07
5.770402325e-07
6.021574392e-07
5.655549065e-07
6.797821684e-07
4.391806375e-07
1.540362933e-06
3.564948781e-06
4.057116161e-08
8.342657336e-08
1.166160016e-07
1.449947124e-07
1.703563055e-07
1.935592882e-07
2.151049243e-07
2.353195418e-07
2.544306947e-07
2.726051168e-07
2.899697161e-07
3.066240761e-07
3.226483348e-07
3.381083783e-07
3.530593854e-07
3.675483167e-07
3.816157021e-07
3.952969462e-07
4.086232952e-07
4.216225616e-07
4.343196723e-07
4.467370878e-07
4.588951286e-07
4.70812237e-07
4.825051914e-07
4.939893109e-07
5.052786199e-07
5.163863184e-07
5.273236673e-07
5.381056801e-07
5.487389174e-07
5.591857608e-07
5.700200722e-07
5.77709153e-07
5.988055544e-07
5.718919318e-07
6.66452406e-07
5.598269073e-07
1.542550127e-06
3.8296227e-06
4.056377681e-08
8.341137734e-08
1.165995286e-07
1.44977869e-07
1.703398699e-07
1.935438012e-07
2.150907123e-07
2.353067711e-07
2.544194096e-07
2.725952591e-07
2.899611369e-07
3.066165444e-07
3.226415441e-07
3.381019515e-07
3.530528793e-07
3.675412267e-07
3.816074665e-07
3.95286951e-07
4.086108789e-07
4.216070196e-07
4.343002602e-07
4.467130236e-07
4.588655932e-07
4.707763723e-07
4.824620991e-07
4.939380431e-07
5.052181483e-07
5.163155898e-07
5.272408057e-07
5.380130586e-07
5.486118039e-07
5.591387872e-07
5.695201714e-07
5.788485542e-07
5.945186637e-07
5.805317053e-07
6.809029647e-07
2.384524427e-07
8.731171229e-07
4.081500766e-06
4.055462518e-08
8.339111802e-08
1.165760658e-07
1.449525348e-07
1.703138273e-07
1.935179279e-07
2.150656247e-07
2.35282888e-07
2.543969908e-07
2.725744281e-07
2.899418941e-07
3.065987759e-07
3.226250284e-07
3.380863645e-07
3.530377996e-07
3.675261408e-07
3.815917744e-07
3.952699727e-07
4.085918612e-07
4.21585143e-07
4.342746454e-07
4.466827381e-07
4.58829656e-07
4.707337579e-07
4.82411742e-07
4.938788351e-07
5.051489102e-07
5.162351929e-07
5.271467836e-07
5.379120515e-07
5.484510571e-07
5.59184163e-07
5.68591448e-07
5.811950277e-07
5.875932458e-07
5.964763766e-07
6.292358815e-07
6.845810779e-07
1.72588889e-06
4.319875301e-06
4.054563964e-08
8.337118388e-08
1.165540899e-07
1.44929869e-07
1.702916626e-07
1.934971483e-07
2.150468263e-07
2.352664504e-07
2.543831186e-07
2.725631746e-07
2.89933176e-07
3.065923833e-07
3.226206318e-07
3.380835212e-07
3.530359592e-07
3.675246519e-07
3.815898915e-07
3.952668644e-07
4.085866189e-07
4.215767907e-07
4.342621493e-07
4.466650167e-07
4.588055902e-07
4.707021993e-07
4.823715213e-07
4.93828779e-07
5.050877608e-07
5.161621584e-07
5.270575825e-07
5.378244232e-07
5.482546212e-07
5.594368777e-07
5.667302349e-07
5.874441054e-07
5.657587478e-07
6.516804861e-07
4.882545806e-07
7.003810222e-07
2.73445707e-06
4.576253386e-06
4.053660733e-08
8.335090638e-08
1.165325684e-07
1.449085382e-07
1.702718021e-07
1.934797048e-07
2.150324264e-07
2.352554814e-07
2.543757725e-07
2.725594737e-07
2.899329893e-07
3.065954368e-07
3.226265164e-07
3.380916993e-07
3.530457717e-07
3.675353254e-07
3.816005475e-07
3.952765291e-07
4.085942349e-07
4.215812296e-07
4.342622261e-07
4.466595037e-07
4.587932326e-07
4.706817297e-07
4.823416707e-07
4.937883157e-07
5.050353445e-07
5.160974513e-07
5.269739853e-07
5.377516379e-07
5.480385545e-07
5.597342048e-07
5.651069818e-07
5.915229151e-07
5.531838864e-07
6.804080496e-07
3.750852594e-07
1.168248295e-06
3.187877197e-06
4.834495315e-06
4.052758876e-08
8.333045634e-08
1.165118306e-07
1.448890282e-07
1.702548853e-07
1.934663878e-07
2.150233611e-07
2.352510564e-07
2.543761607e-07
2.725646602e-07
2.899427887e-07
3.066095046e-07
3.226443574e-07
3.381126753e-07
3.530691086e-07
3.675601226e-07
3.81625788e-07
3.953010922e-07
4.086169108e-07
4.216007359e-07
4.342772256e-07
4.46668624e-07
4.587950864e-07
4.706749361e-07
4.823248723e-07
4.937602154e-07
5.04994643e-07
5.160434766e-07
5.269028343e-07
5.376772974e-07
5.478954946e-07
5.59745656e-07
5.64707439e-07
5.915687805e-07
5.529251076e-07
6.858226297e-07
2.772494829e-07
6.906978792e-07
3.648317922e-06
5.091860483e-06
4.051861765e-08
8.330991124e-08
1.164920554e-07
1.448716279e-07
1.702413161e-07
1.934577226e-07
2.150202807e-07
2.352539541e-07
2.543851921e-07
2.725797737e-07
2.899637447e-07
3.066358877e-07
3.226755854e-07
3.381480068e-07
3.531076521e-07
3.676008463e-07
3.816675325e-07
3.953425855e-07
4.086567863e-07
4.216375523e-07
4.343094898e-07
4.466948155e-07
4.58813683e-07
4.706844412e-07
4.823238423e-07
4.937472783e-07
5.049686005e-07
5.160027972e-07
5.268497153e-07
5.375913003e-07
5.478799678e-07
5.593548485e-07
5.654537039e-07
5.894379388e-07
5.595832223e-07
6.553937014e-07
4.225839914e-07
1.311620801e-06
4.055143079e-06
5.347704271e-06
4.050974149e-08
8.328938847e-08
1.164734938e-07
1.448567303e-07
1.702316323e-07
1.934543963e-07
2.150240251e-07
2.352651681e-07
2.544040142e-07
2.726061157e-07
2.899973122e-07
3.066761927e-07
3.22721956e-07
3.381995956e-07
3.531634456e-07
3.676596767e-07
3.81728092e-07
3.954034443e-07
4.087164135e-07
4.216943406e-07
4.343617826e-07
4.467409368e-07
4.588519683e-07
4.707132717e-07
4.8234168e-07
4.937526755e-07
5.049603916e-07
5.159790354e-07
5.268152826e-07
5.375118674e-07
5.479291427e-07
5.587530623e-07
5.672043414e-07
5.840635489e-07
5.706964226e-07
6.450129295e-07
4.70545968e-07
4.723129063e-07
4.429770469e-06
5.60520356e-06
4.050101734e-08
8.32690286e-08
1.164564401e-07
1.448447941e-07
1.702264594e-07
1.934572056e-07
2.150355671e-07
2.352858478e-07
2.544339538e-07
2.726451907e-07
2.900451724e-07
3.067322763e-07
3.227854989e-07
3.382696405e-07
3.532388525e-07
3.677391353e-07
3.818101386e-07
3.954864821e-07
4.087987378e-07
4.217741674e-07
4.344372809e-07
4.46810263e-07
4.589133039e-07
4.707648628e-07
4.823818768e-07
4.937799535e-07
5.049735166e-07
5.159762398e-07
5.26799982e-07
5.374603341e-07
5.479520615e-07
5.583958179e-07
5.680401946e-07
5.815721957e-07
5.766896882e-07
6.27207883e-07
4.868488043e-07
1.084288505e-06
4.796381539e-06
5.863763149e-06
4.049251407e-08
8.324900167e-08
1.164412436e-07
1.448363589e-07
1.702265309e-07
1.934670813e-07
2.1505604e-07
2.353173291e-07
2.544765508e-07
2.726987425e-07
2.901092732e-07
3.068062885e-07
3.228685637e-07
3.383606869e-07
3.533366077e-07
3.678421391e-07
3.819167617e-07
3.955949499e-07
4.089071587e-07
4.218805665e-07
4.345396373e-07
4.469065501e-07
4.59001533e-07
4.708431251e-07
4.824483893e-07
4.93833097e-07
5.05011962e-07
5.159984029e-07
5.268078805e-07
5.374376596e-07
5.479779118e-07
5.581196888e-07
5.688183331e-07
5.790017425e-07
5.806681895e-07
6.447772912e-07
6.51553074e-07
1.511607915e-06
5.141067004e-06
6.122758244e-06
4.048431398e-08
8.322951087e-08
1.164283138e-07
1.448320537e-07
1.702327005e-07
1.934851037e-07
2.150867543e-07
2.353611545e-07
2.54533581e-07
2.727687818e-07
2.901918591e-07
3.069007067e-07
3.229738579e-07
3.384756676e-07
3.534598632e-07
3.679720501e-07
3.82051522e-07
3.957325927e-07
4.090455894e-07
4.220176013e-07
4.34673046e-07
4.470341029e-07
4.59121049e-07
4.709525175e-07
4.825457196e-07
4.939166164e-07
5.050802808e-07
5.160496981e-07
5.268450964e-07
5.374395001e-07
5.480483058e-07
5.577925012e-07
5.699429459e-07
5.752420102e-07
5.902997715e-07
6.25695533e-07
2.318300335e-07
1.887147122e-06
5.469000177e-06
6.383888936e-06
4.047651483e-08
8.321079754e-08
1.164181298e-07
1.448326097e-07
1.702459561e-07
1.935125201e-07
2.151292204e-07
2.35419099e-07
2.546070861e-07
2.728576182e-07
2.902955083e-07
3.070183767e-07
3.231044922e-07
3.386179538e-07
3.536122431e-07
3.681327352e-07
3.822185154e-07
3.959037188e-07
4.092185305e-07
4.221899419e-07
4.348423218e-07
4.471978554e-07
4.592768773e-07
4.710981327e-07
4.826790047e-07
4.94035662e-07
5.051835866e-07
5.161352889e-07
5.269159918e-07
5.374748122e-07
5.481449194e-07
5.575323467e-07
5.70940701e-07
5.720362516e-07
5.98552156e-07
5.920832593e-07
6.601490036e-07
1.892747901e-06
5.779536456e-06
6.648960278e-06
4.046923222e-08
8.3193147e-08
1.164112502e-07
1.44838874e-07
1.702674367e-07
1.935507644e-07
2.151851733e-07
2.354931997e-07
2.546994065e-07
2.729678977e-07
2.90423174e-07
3.071625586e-07
3.232640322e-07
3.38791412e-07
3.537979069e-07
3.683286352e-07
3.824224484e-07
3.9611328e-07
4.09431155e-07
4.224029548e-07
4.350529952e-07
4.474034683e-07
4.594747773e-07
4.712858001e-07
4.828541188e-07
4.941961045e-07
5.053278436e-07
5.162602728e-07
5.270302655e-07
5.37529023e-07
5.483596181e-07
5.570318594e-07
5.72731248e-07
5.671631612e-07
6.089187493e-07
5.706978275e-07
7.156556576e-07
1.022880592e-06
6.097438082e-06
6.917044272e-06
4.046260233e-08
8.317689532e-08
1.164083237e-07
1.448518257e-07
1.702984548e-07
1.936014818e-07
2.15256598e-07
2.355857888e-07
2.548132209e-07
2.731026463e-07
2.905782322e-07
3.073369807e-07
3.234565576e-07
3.390004697e-07
3.540216226e-07
3.685648454e-07
3.826687255e-07
3.963669664e-07
4.096894096e-07
4.226628104e-07
4.353114231e-07
4.47657447e-07
4.597213667e-07
4.715222121e-07
4.830777897e-07
4.944046907e-07
5.055196943e-07
5.164317307e-07
5.271920919e-07
5.376195075e-07
5.486538127e-07
5.564596157e-07
5.747568465e-07
5.62540532e-07
6.163067689e-07
5.594904692e-07
7.786053121e-07
1.483760019e-06
6.404517539e-06
7.187553407e-06
4.045678533e-08
8.316243729e-08
1.164101027e-07
1.448725931e-07
1.703405189e-07
1.936665596e-07
2.153457602e-07
2.356995319e-07
2.549515901e-07
2.732653197e-07
2.907645378e-07
3.07545901e-07
3.236867315e-07
3.39250193e-07
3.542888514e-07
3.688472091e-07
3.829635512e-07
3.966713169e-07
4.100001329e-07
4.229766072e-07
4.356249198e-07
4.479672776e-07
4.600242594e-07
4.718150659e-07
4.833577501e-07
4.946691711e-07
5.057667222e-07
5.166581611e-07
5.274038311e-07
5.377813832e-07
5.489058705e-07
5.563301029e-07
5.754356385e-07
5.621471184e-07
6.155387929e-07
5.644794859e-07
8.639473528e-07
1.873011667e-06
6.699714041e-06
7.460056766e-06
4.045196923e-08
8.315023544e-08
1.164174582e-07
1.449024747e-07
1.703953572e-07
1.937481633e-07
2.154552514e-07
2.358374649e-07
2.551179996e-07
2.734598568e-07
2.90986488e-07
3.077941802e-07
3.239598817e-07
3.395463766e-07
3.546058486e-07
3.691824275e-07
3.833140508e-07
3.970338488e-07
4.103711943e-07
4.233525189e-07
4.360019111e-07
4.483415837e-07
4.603922219e-07
4.721732203e-07
4.837029086e-07
4.949984445e-07
5.060778712e-07
5.1694792e-07
5.27677056e-07
5.38006386e-07
5.492183188e-07
5.561599433e-07
5.770012494e-07
5.574068688e-07
6.26313539e-07
5.765378889e-07
9.711232246e-07
2.24167694e-06
6.98290485e-06
7.734561853e-06
4.044837423e-08
8.314083021e-08
1.164313964e-07
1.449429606e-07
1.704649456e-07
1.938487718e-07
2.155880378e-07
2.360030319e-07
2.553164035e-07
2.736907342e-07
2.912490876e-07
3.080873585e-07
3.242820903e-07
3.398956462e-07
3.549797786e-07
3.695781881e-07
3.837284093e-07
3.974632089e-07
4.108116547e-07
4.237999648e-07
4.364521126e-07
4.487903091e-07
4.608353599e-07
4.726068829e-07
4.841235263e-07
4.954027832e-07
5.064633949e-07
5.173111452e-07
5.280217287e-07
5.383088446e-07
5.495540735e-07
5.56313005e-07
5.775066411e-07
5.565555863e-07
6.320316146e-07
5.451861957e-07
1.015424356e-06
2.627084933e-06
7.251900818e-06
8.012717508e-06
4.044625732e-08
8.31348535e-08
1.164530778e-07
1.449957603e-07
1.70551543e-07
1.939712002e-07
2.15747496e-07
2.362001473e-07
2.555512869e-07
2.739630239e-07
2.915580106e-07
3.084317276e-07
3.246602798e-07
3.403055624e-07
3.554188372e-07
3.700433064e-07
3.842160327e-07
3.979693506e-07
4.11331957e-07
4.243298095e-07
4.369867351e-07
4.493249294e-07
4.613653336e-07
4.731278269e-07
4.846314289e-07
4.958940305e-07
5.069350946e-07
5.177596954e-07
5.284495369e-07
5.386972638e-07
5.499561771e-07
5.566066921e-07
5.777117036e-07
5.585350245e-07
6.246129762e-07
5.674199671e-07
5.934503625e-07
1.002792458e-06
7.510114348e-06
8.295696536e-06
4.044591905e-08
8.313304818e-08
1.164838447e-07
1.450628339e-07
1.706577272e-07
1.941186436e-07
2.159374679e-07
2.364332814e-07
2.558277415e-07
2.742824665e-07
2.919196777e-07
3.088344169e-07
3.251023096e-07
3.407847307e-07
3.55932383e-07
3.705878846e-07
3.847877353e-07
3.985637499e-07
4.119441666e-07
4.249546171e-07
4.37618744e-07
4.49958711e-07
4.619956123e-07
4.737496379e-07
4.85240254e-07
4.964858141e-07
5.0750666e-07
5.183068669e-07
5.289752709e-07
5.391811275e-07
5.504496412e-07
5.569991544e-07
5.781484665e-07
5.586985331e-07
6.279241908e-07
5.533413621e-07
6.323238308e-07
1.349050674e-06
7.778641547e-06
8.582213554e-06
4.044771613e-08
8.313628872e-08
1.16525256e-07
1.451464403e-07
1.707864546e-07
1.942947524e-07
2.161623243e-07
2.367075375e-07
2.561515708e-07
2.746555963e-07
2.923413936e-07
3.093035395e-07
3.25617137e-07
3.413429782e-07
3.565311286e-07
3.712235255e-07
3.854559838e-07
3.992596833e-07
4.126622878e-07
4.256889962e-07
4.38363216e-07
4.507070642e-07
4.627418146e-07
4.744880364e-07
4.85965751e-07
4.971938426e-07
5.081939081e-07
5.189676382e-07
5.296185891e-07
5.397554386e-07
5.511456843e-07
5.571350535e-07
5.798517084e-07
5.56014887e-07
6.340342807e-07
5.381180764e-07
7.832512038e-07
1.838748525e-06
8.039143875e-06
8.872126351e-06
4.045208019e-08
8.314558958e-08
1.165791199e-07
1.452491853e-07
1.709411265e-07
1.945037242e-07
2.164270457e-07
2.370287187e-07
2.565294161e-07
2.750899016e-07
2.928315285e-07
3.098484036e-07
3.26215064e-07
3.419916344e-07
3.57227447e-07
3.719636552e-07
3.862352427e-07
4.000725989e-07
4.135026678e-07
4.26550047e-07
4.392378148e-07
4.515880257e-07
4.636221769e-07
4.753613194e-07
4.868261871e-07
4.980363008e-07
5.090149542e-07
5.197603831e-07
5.303949056e-07
5.404568971e-07
5.519616338e-07
5.574860866e-07
5.812642832e-07
5.546641935e-07
6.399878557e-07
5.109852048e-07
2.591424779e-07
2.298371727e-06
8.289319437e-06
9.165233993e-06
4.045953415e-08
8.316211183e-08
1.166475158e-07
1.453740558e-07
1.711256309e-07
1.947503557e-07
2.16737327e-07
2.374034273e-07
2.569688263e-07
2.755939132e-07
2.93399656e-07
3.104796946e-07
3.269079536e-07
3.427437951e-07
3.580356986e-07
3.72823906e-07
3.871424024e-07
4.010205748e-07
4.144844584e-07
4.275578385e-07
4.402633012e-07
4.526227952e-07
4.646580998e-07
4.763908973e-07
4.878428606e-07
4.990342797e-07
5.099909354e-07
5.207051058e-07
5.313298109e-07
5.412844806e-07
5.530139326e-07
5.57704994e-07
5.835925253e-07
5.515373497e-07
6.472250078e-07
4.925377171e-07
4.077301414e-07
2.715624939e-06
8.52799471e-06
9.460064237e-06
4.047069788e-08
8.318722274e-08
1.167328456e-07
1.455244704e-07
1.713444017e-07
1.950401043e-07
2.170996453e-07
2.378391432e-07
2.574783152e-07
2.76177254e-07
2.940566043e-07
3.112095377e-07
3.27709315e-07
3.436144507e-07
3.589724336e-07
3.738224055e-07
3.881971403e-07
4.021247466e-07
4.156300728e-07
4.287358694e-07
4.414640077e-07
4.538362255e-07
4.658746449e-07
4.776017872e-07
4.890405789e-07
5.002122877e-07
5.111460725e-07
5.218262246e-07
5.324454897e-07
5.422728511e-07
5.542829538e-07
5.579851135e-07
5.863223695e-07
5.480505177e-07
6.558825021e-07
4.630233859e-07
6.272159792e-07
3.168050925e-06
8.751213704e-06
9.756786611e-06
4.048629709e-08
8.322262526e-08
1.16837942e-07
1.457043836e-07
1.716025396e-07
1.953792293e-07
2.175213946e-07
2.3834437e-07
2.580675182e-07
2.768507685e-07
2.948145537e-07
3.120516036e-07
3.286344553e-07
3.446206695e-07
3.600565836e-07
3.749800009e-07
3.894222072e-07
4.034097009e-07
4.169657381e-07
4.301117071e-07
4.428684778e-07
4.552574157e-07
4.673010453e-07
4.790230145e-07
4.904479928e-07
5.015985001e-07
5.125083514e-07
5.231509565e-07
5.337708277e-07
5.434478403e-07
5.558006209e-07
5.583496434e-07
5.895214685e-07
5.440854554e-07
6.65191129e-07
4.401014243e-07
8.505196892e-07
2.865238121e-06
8.961065241e-06
1.005777964e-05
4.050720891e-08
8.327044336e-08
1.169661641e-07
1.459183906e-07
1.719059566e-07
1.957749885e-07
2.180111298e-07
2.389289002e-07
2.587474719e-07
2.776268468e-07
2.956874205e-07
3.130215218e-07
3.297009062e-07
3.45782054e-07
3.613099674e-07
3.763208578e-07
3.908441633e-07
4.049043164e-07
4.18522443e-07
4.317180332e-07
4.445105443e-07
4.569207566e-07
4.689716517e-07
4.806883769e-07
4.920981136e-07
5.032250928e-07
5.141097258e-07
5.247098555e-07
5.353407061e-07
5.448316767e-07
5.576254929e-07
5.587870836e-07
5.932375533e-07
5.398657862e-07
6.752736229e-07
4.153407288e-07
8.883901828e-07
1.477614962e-06
9.187235043e-06
1.036256606e-05
4.053456368e-08
8.333319175e-08
1.171214001e-07
1.461717547e-07
1.722614513e-07
1.962357789e-07
2.185787664e-07
2.396040671e-07
2.595309278e-07
2.785198035e-07
2.966913054e-07
3.141374321e-07
3.309291003e-07
3.471215613e-07
3.627582711e-07
3.77873555e-07
3.924945696e-07
4.066430757e-07
4.203373351e-07
4.335941634e-07
4.464309574e-07
4.588675828e-07
4.709275526e-07
4.826379809e-07
4.940296034e-07
5.051291868e-07
5.159863055e-07
5.265386941e-07
5.371892483e-07
5.464707371e-07
5.597547368e-07
5.59485075e-07
5.971073586e-07
5.364544434e-07
6.84370948e-07
3.94829447e-07
9.627184269e-07
2.019063244e-06
9.409417133e-06
1.067031166e-05
4.056989803e-08
8.341383718e-08
1.173081168e-07
1.464704561e-07
1.726767976e-07
1.967712694e-07
2.192357279e-07
2.403828783e-07
2.604324751e-07
2.795460186e-07
2.978447058e-07
3.154203208e-07
3.323428538e-07
3.486661314e-07
3.644318264e-07
3.796720645e-07
3.944112201e-07
4.086675926e-07
4.224555117e-07
4.357880013e-07
4.486794406e-07
4.611482035e-07
4.732184176e-07
4.849198805e-07
4.96288318e-07
5.07354218e-07
5.181796592e-07
5.286780801e-07
5.393561885e-07
5.484099474e-07
5.62231004e-07
5.604464947e-07
6.014610514e-07
5.325885083e-07
6.959522194e-07
3.688775675e-07
1.070372117e-06
2.495369101e-06
9.622647039e-06
1.098132476e-05
4.061536791e-08
8.351613096e-08
1.175315905e-07
1.468213856e-07
1.731609869e-07
1.973926896e-07
2.199952199e-07
2.412802179e-07
2.614686581e-07
2.807239846e-07
2.9916853e-07
3.168940271e-07
3.339694e-07
3.504468077e-07
3.663659109e-07
3.817563333e-07
3.966390783e-07
4.110279499e-07
4.249318417e-07
4.383582359e-07
4.513170727e-07
4.638243192e-07
4.759047204e-07
4.875918194e-07
4.989285036e-07
5.09950906e-07
5.207370834e-07
5.311769704e-07
5.418739049e-07
5.507565193e-07
5.648794244e-07
5.625067978e-07
6.041839979e-07
5.346645207e-07
6.998989001e-07
3.788209693e-07
1.199876684e-06
2.940558242e-06
9.825633563e-06
1.129575131e-05
4.067410494e-08
8.364499368e-08
1.177981483e-07
1.472326017e-07
1.737246634e-07
1.981134834e-07
2.208730504e-07
2.423137832e-07
2.626590273e-07
2.820754816e-07
3.006873942e-07
3.185866317e-07
3.358408014e-07
3.525001333e-07
3.686020986e-07
3.841736011e-07
3.992316873e-07
4.137843595e-07
4.278330193e-07
4.413769331e-07
4.544192359e-07
4.669720969e-07
4.79060676e-07
4.907236932e-07
5.020145682e-07
5.129779781e-07
5.23712959e-07
5.340880895e-07
5.447870815e-07
5.536077256e-07
5.675549563e-07
5.665577677e-07
6.027292877e-07
5.503290017e-07
6.870725105e-07
3.886888747e-07
4.069325627e-07
3.417904976e-06
1.001287009e-05
1.16118525e-05
4.075099362e-08
8.380695445e-08
1.181155329e-07
1.477139966e-07
1.743813644e-07
1.989513303e-07
2.218905069e-07
2.43507895e-07
2.640310064e-07
2.836316186e-07
3.024368514e-07
3.205387751e-07
3.380031038e-07
3.548778819e-07
3.711981991e-07
3.869880723e-07
4.022601833e-07
4.170152373e-07
4.31244619e-07
4.449357048e-07
4.580810275e-07
4.706869145e-07
4.827782791e-07
4.944007688e-07
5.056234681e-07
5.165034967e-07
5.271707564e-07
5.374598689e-07
5.482012397e-07
5.568025243e-07
5.712380901e-07
5.693357161e-07
6.065641683e-07
5.551239693e-07
6.865817837e-07
3.678094989e-07
7.026619806e-07
3.846199771e-06
1.018272984e-05
1.192928612e-05
4.085446322e-08
8.40110656e-08
1.184936246e-07
1.482783527e-07
1.751492961e-07
1.99930937e-07
2.230784629e-07
2.448992346e-07
2.656276127e-07
2.854429083e-07
3.044762107e-07
3.228194143e-07
3.405354963e-07
3.576697267e-07
3.742542983e-07
3.903098515e-07
4.058439475e-07
4.208479489e-07
4.353000086e-07
4.491708357e-07
4.624373239e-07
4.750980572e-07
4.871772647e-07
4.987298529e-07
5.098479802e-07
5.206071542e-07
5.311784593e-07
5.413625095e-07
5.521561269e-07
5.604932523e-07
5.757727392e-07
5.712654304e-07
6.166351915e-07
5.404855861e-07
7.200987658e-07
2.783163002e-07
9.112388612e-07
1.512222988e-06
1.034552959e-05
1.224939997e-05
4.099990694e-08
8.426883981e-08
1.189421942e-07
1.489363393e-07
1.760448423e-07
2.010743809e-07
2.244641429e-07
2.465199562e-07
2.674868965e-07
2.875552363e-07
3.068619164e-07
3.25497425e-07
3.435246514e-07
3.609816905e-07
3.778978839e-07
3.942923827e-07
4.101637954e-07
4.254901538e-07
4.402273036e-07
4.543198203e-07
4.677203296e-07
4.804186241e-07
4.924422083e-07
5.038626529e-07
5.148091981e-07
5.253843429e-07
5.358114752e-07
5.458788533e-07
5.566497155e-07
5.650807433e-07
5.799179217e-07
5.775153288e-07
6.176555238e-07
5.513199175e-07
7.28168229e-07
1.928225789e-07
9.542991899e-07
1.526707302e-06
1.052098022e-05
1.257193118e-05
4.121693617e-08
8.459599971e-08
1.1946967e-07
1.496891159e-07
1.770789691e-07
2.023893606e-07
2.260447731e-07
2.483533315e-07
2.695779634e-07
2.899259215e-07
3.09544103e-07
3.285168621e-07
3.469266098e-07
3.647751187e-07
3.820943522e-07
3.989294662e-07
4.152633002e-07
4.310632325e-07
4.462343276e-07
4.606717051e-07
4.7427697e-07
4.870105118e-07
4.989049397e-07
5.10069331e-07
5.207082211e-07
5.3097239e-07
5.411746234e-07
5.510547809e-07
5.618597073e-07
5.702712696e-07
5.850830396e-07
5.84019609e-07
6.190460254e-07
5.745348566e-07
6.965110407e-07
3.576026619e-07
9.962254338e-07
1.95114637e-06
1.069218581e-05
1.28967585e-05
4.158600766e-08
8.509216727e-08
1.202124694e-07
1.507165286e-07
1.785522117e-07
2.042332683e-07
2.281943403e-07
2.507742835e-07
2.72282067e-07
2.929586249e-07
3.12962614e-07
3.323432818e-07
3.512428309e-07
3.694904752e-07
3.871236219e-07
4.043269789e-07
4.21076939e-07
4.37399831e-07
4.531242483e-07
4.681040082e-07
4.821677237e-07
4.951405485e-07
5.069722206e-07
5.177887886e-07
5.27925262e-07
5.3764768e-07
5.474499668e-07
5.569751487e-07
5.679820596e-07
5.758237067e-07
5.921406022e-07
5.89040197e-07
6.279429684e-07
5.766611278e-07
7.123070334e-07
3.184429526e-07
1.063035909e-06
2.351354235e-06
1.085698475e-05
1.322373993e-05
4.242152303e-08
8.64446352e-08
1.222791792e-07
1.536584097e-07
1.828824737e-07
2.096249732e-07
2.344092224e-07
2.577366053e-07
2.800867964e-07
3.017879832e-07
3.229755966e-07
3.435361995e-07
3.636229819e-07
3.824784316e-07
4.000563339e-07
4.168564927e-07
4.328403016e-07
4.482813013e-07
4.630371178e-07
4.772590355e-07
4.910968402e-07
5.042428164e-07
5.162915848e-07
5.270599401e-07
5.367999432e-07
5.458547098e-07
5.549965598e-07
5.639960553e-07
5.74864212e-07
5.826845912e-07
5.995708118e-07
5.95864656e-07
6.380132566e-07
5.79101031e-07
7.317855118e-07
2.549318345e-07
1.268463418e-06
2.668629932e-06
1.100804517e-05
1.355222913e-05
4.477456936e-08
9.137885371e-08
1.301656661e-07
1.65221883e-07
1.993138558e-07
2.300436856e-07
2.582041146e-07
2.848310055e-07
3.109138016e-07
3.369647326e-07
3.629320371e-07
3.882276023e-07
4.126182176e-07
4.341871467e-07
4.525574631e-07
4.683806792e-07
4.812488262e-07
4.914619667e-07
4.988414295e-07
5.045095156e-07
5.10535702e-07
5.179843987e-07
5.268456991e-07
5.364584389e-07
5.460888968e-07
5.551091121e-07
5.640219991e-07
5.724321473e-07
5.83175754e-07
5.907893578e-07
6.07659313e-07
6.061400527e-07
6.458634981e-07
5.877671819e-07
7.52344125e-07
2.395203667e-07
1.192053647e-06
2.984624335e-06
1.115840792e-05
1.388291189e-05
5.078242122e-08
1.057023787e-07
1.5331961e-07
1.98955539e-07
2.448976839e-07
2.858396517e-07
3.232330346e-07
3.591828235e-07
3.955518889e-07
4.329891498e-07
4.709288512e-07
5.080096791e-07
5.430955878e-07
5.733625173e-07
5.980936397e-07
6.173432143e-07
6.29516029e-07
6.334467234e-07
6.274292474e-07
6.1225348e-07
5.922494553e-07
5.727987039e-07
5.588338862e-07
5.532068478e-07
5.554659835e-07
5.624926983e-07
5.719944031e-07
5.812230878e-07
5.931421132e-07
5.999976789e-07
6.19111866e-07
6.160294376e-07
6.566195078e-07
6.049426466e-07
7.646479019e-07
3.119203129e-07
1.275192578e-06
3.877062159e-06
1.129871546e-05
1.421540015e-05
6.231639922e-08
1.343226711e-07
1.992394041e-07
2.641583608e-07
3.289578876e-07
3.866660317e-07
4.400171384e-07
4.924195273e-07
5.464493544e-07
6.025116253e-07
6.592995607e-07
7.148133954e-07
7.672567893e-07
8.141507148e-07
8.548266687e-07
8.881655664e-07
9.108737358e-07
9.18902362e-07
9.073233655e-07
8.736527198e-07
8.203779348e-07
7.544359901e-07
6.867596429e-07
6.300202617e-07
5.932702213e-07
5.771659175e-07
5.772829701e-07
5.855421176e-07
6.003513686e-07
6.098372291e-07
6.329501455e-07
6.272622831e-07
6.752666627e-07
6.20700093e-07
7.547285055e-07
4.402761858e-07
1.028264362e-06
2.951740956e-06
1.141288881e-05
1.454969357e-05
7.906371655e-08
1.756613926e-07
2.647583317e-07
3.544643784e-07
4.410935225e-07
5.187452843e-07
5.921127803e-07
6.655476575e-07
7.415384861e-07
8.19740458e-07
8.982851037e-07
9.752510909e-07
1.049315523e-06
1.11951183e-06
1.185404708e-06
1.244482344e-06
1.291459689e-06
1.318894645e-06
1.318176943e-06
1.282612434e-06
1.210554037e-06
1.106662293e-06
9.825582669e-07
8.556099753e-07
7.442263602e-07
6.612986084e-07
6.131619131e-07
5.944130998e-07
6.006378674e-07
6.121264355e-07
6.437858063e-07
6.414912363e-07
7.010229745e-07
6.234713464e-07
7.947684219e-07
4.896938155e-07
2.778865669e-07
4.231123213e-06
1.152001971e-05
1.48843417e-05
9.964186467e-08
2.241695434e-07
3.401672259e-07
4.547695253e-07
5.612390909e-07
6.576367075e-07
7.508817107e-07
8.452427196e-07
9.420343332e-07
1.040023615e-06
1.137616084e-06
1.234222705e-06
1.330306696e-06
1.426648578e-06
1.522624623e-06
1.614272649e-06
1.69446114e-06
1.753160838e-06
1.778979208e-06
1.761480056e-06
1.694366187e-06
1.57832794e-06
1.423011445e-06
1.246172436e-06
1.06784639e-06
9.052194959e-07
7.733252913e-07
6.784616475e-07
6.29672594e-07
6.131192801e-07
6.404329895e-07
6.521176771e-07
7.183128288e-07
6.529854592e-07
8.241656856e-07
4.753982525e-07
1.043990768e-06
2.839863563e-06
1.162467804e-05
1.522032399e-05
1.237215532e-07
2.76077043e-07
4.17629511e-07
5.524813202e-07
6.729877647e-07
7.8316413e-07
8.913383993e-07
1.000262533e-06
1.109459543e-06
1.217611374e-06
1.324879916e-06
1.433236601e-06
1.545161722e-06
1.661818331e-06
1.781391252e-06
1.899020042e-06
2.008028316e-06
2.099846671e-06
2.163866411e-06
2.187311518e-06
2.157770759e-06
2.068468833e-06
1.923394002e-06
1.738019483e-06
1.531729864e-06
1.322234093e-06
1.123397289e-06
9.431700829e-07
7.990028787e-07
6.921387554e-07
6.579745717e-07
6.38283768e-07
7.35857409e-07
6.74954601e-07
8.332494487e-07
5.767268681e-07
1.621028514e-06
4.0468606e-06
1.174615503e-05
1.555691756e-05
1.504902862e-07
3.305552445e-07
4.938007308e-07
6.416967553e-07
7.688751094e-07
8.855437081e-07
9.992713483e-07
1.110367789e-06
1.217383727e-06
1.320753583e-06
1.423905783e-06
1.531353459e-06
1.645695567e-06
1.765745101e-06
1.887417171e-06
2.006691565e-06
2.122348292e-06
2.234030827e-06
2.337779716e-06
2.421566267e-06
2.466224272e-06
2.453758511e-06
2.377129717e-06
2.243506102e-06
2.068690816e-06
1.869624776e-06
1.655866661e-06
1.432801171e-06
1.211133553e-06
9.910665138e-07
8.077892146e-07
6.875126587e-07
7.111441269e-07