/*--------------------------------*- C++ -*----------------------------------*\
| =========                 |                                                 |
| \\      /  F ield         | OpenFOAM: The Open Source CFD Toolbox           |
|  \\    /   O peration     | Version:  v1912                                 |
|   \\  /    A nd           | Website:  www.openfoam.com                      |
|    \\/     M anipulation  |                                                 |
\*---------------------------------------------------------------------------*/
FoamFile
{
    version     2.0;
    format      ascii;
    class       volScalarField;
    location    "1";
    object      iDmdt.gasAndLiquid;
}
// * * * * * * * * * * * * * * * * * * * * * * * * * * * * * * * * * * * * * //

dimensions      [1 -3 -1 0 0 0 0];


internalField   nonuniform List<scalar> 
4800
(
9.175033936e-161
4.247651077e-161
2.716756405e-161
1.960483895e-161
1.488567783e-161
1.15182643e-161
8.968835678e-162
7.020932729e-162
5.540113302e-162
4.418097445e-162
3.553673861e-162
2.857879137e-162
2.202753978e-162
3.655390243e-161
3.638517935e-160
4.467819605e-160
2.981781531e-160
1.390841598e-160
1.55631049e-160
1.280018598e-157
5.625111389e-155
1.185347365e-152
1.280489091e-150
2.989320491e-147
1.974069476e-147
4.139542584e-137
6.723446788e-137
2.788926828e-137
2.586443054e-154
4.44724767e-108
1.94337105e-124
6.333660382e-82
2.434402477e-80
8.03757284e-83
3.8427707e-66
6.914574785e-84
-9.6347314e-54
1.193949802e-71
-0.000557621055
0.1179637187
1.204129421e-158
5.424983152e-159
3.496013415e-159
2.579489784e-159
2.019374243e-159
1.608687769e-159
1.288006469e-159
1.042657493e-159
8.605405312e-160
7.269985415e-160
6.244796539e-160
5.355045985e-160
4.378471734e-160
3.873436362e-159
4.40549731e-158
5.574222716e-158
3.826341218e-158
1.837263553e-158
1.252018744e-158
6.910769285e-156
2.809608338e-153
2.691229475e-151
1.045320267e-149
6.284432789e-146
5.955047803e-146
6.346782679e-147
1.106224513e-133
1.349466536e-133
6.373025993e-154
1.964875679e-105
9.787493067e-125
2.931696035e-81
2.827896148e-80
9.616070958e-83
2.333712561e-65
1.068729845e-84
-1.796621034e-53
0
-0.0008631523976
0.2168899691
6.642334097e-157
2.930732354e-157
1.92916768e-157
1.485919739e-157
1.227263832e-157
1.021379227e-157
8.475365729e-158
7.142267271e-158
6.213019825e-158
5.595878963e-158
5.135281197e-158
4.660432317e-158
3.990457462e-158
1.722149664e-157
2.134063595e-156
2.76499121e-156
1.94272545e-156
9.559859222e-157
4.872598747e-157
1.437177813e-154
5.526081045e-152
2.089210611e-150
5.06760564e-150
5.546875989e-144
3.708498251e-144
3.758267478e-159
7.572867646e-129
1.031416941e-128
2.195206357e-147
6.296386722e-102
4.860805785e-121
9.242325726e-80
2.005092918e-97
1.188537155e-64
8.707970078e-63
3.617644616e-83
-1.169417939e-51
4.158245182e-69
-0.001489944936
0.2956670984
2.593487145e-155
1.113851751e-155
7.643762938e-156
6.332316026e-156
5.668684333e-156
4.98289833e-156
4.289765108e-156
3.754850774e-156
3.429156167e-156
3.266235759e-156
3.157165961e-156
2.978637724e-156
2.622714724e-156
5.577761386e-156
6.60547715e-155
8.720253493e-155
6.264067651e-155
3.159327452e-155
1.415674878e-155
1.837040557e-153
6.737959779e-151
1.044924288e-149
5.103560954e-150
1.270463665e-141
6.654177203e-142
0
1.519762149e-124
6.395045002e-125
2.489089971e-143
6.566038273e-99
0
2.423436739e-78
0
1.069105571e-61
1.843587507e-60
1.550080219e-78
4.931608523e-50
0
-0.002031728957
0.3576193374
8.695632266e-154
3.566549951e-154
2.600056717e-154
2.37089858e-154
2.325861701e-154
2.148725472e-154
1.898439202e-154
1.703014332e-154
1.607148121e-154
1.588385945e-154
1.583873772e-154
1.524472066e-154
1.359187878e-154
1.679955437e-154
1.471680428e-153
1.958045793e-153
1.434756078e-153
7.418451398e-154
3.203992714e-154
1.605802218e-152
5.582128189e-150
1.215830603e-148
5.125475844e-150
1.877586328e-140
9.358701792e-141
3.467298404e-159
9.172556628e-122
2.179978293e-122
4.190806445e-142
1.875393423e-95
0
3.844243205e-77
0
2.057252358e-59
1.542753318e-58
0
1.443335806e-47
2.398459518e-68
-0.00225779839
0.4001070636
2.871356584e-152
1.095997396e-152
8.472290022e-153
8.453205703e-153
8.929282409e-153
8.50588093e-153
7.59076402e-153
6.868532178e-153
6.580838946e-153
6.622981691e-153
6.695106628e-153
6.488226968e-153
5.804042898e-153
5.344012807e-153
2.579818677e-152
3.365295327e-152
2.499600606e-152
1.324132368e-152
5.753676831e-153
1.023444657e-151
3.255208294e-149
4.014433945e-147
1.183585989e-149
2.465152399e-140
2.477408722e-140
5.522445532e-141
1.008752356e-120
6.667286406e-121
0
1.496923978e-92
7.262050722e-111
3.902857815e-76
1.830703373e-95
1.0291821e-57
5.680721743e-57
0
8.926066654e-46
3.208548848e-68
-0.001615315619
0.4295606567
9.707173861e-151
3.396826071e-151
2.712604819e-151
2.868013051e-151
3.157381893e-151
3.040493328e-151
2.707928303e-151
2.444965792e-151
2.349129404e-151
2.376833156e-151
2.410086457e-151
2.336477448e-151
2.08784272e-151
1.710361429e-151
3.949378462e-151
4.729421964e-151
3.494662775e-151
1.888311196e-151
8.406949121e-152
4.996357708e-151
1.262008787e-148
9.801793071e-146
7.310566018e-146
8.874204091e-146
3.609393611e-138
2.461904357e-139
2.675988079e-139
9.060970609e-118
0
2.578119143e-90
2.531244882e-109
2.490979178e-75
0
1.708549413e-56
1.018999685e-55
2.005543771e-74
1.630732041e-44
3.655518405e-66
-0.001309448569
0.4500743782
3.222671758e-149
1.040041508e-149
8.304922769e-150
8.937975163e-150
9.95469017e-150
9.57979139e-150
8.457158017e-150
7.576660023e-150
7.256471226e-150
7.345852204e-150
7.454113206e-150
7.231243503e-150
6.426988564e-150
5.02085084e-150
6.11211475e-150
6.017496498e-150
4.208443436e-150
2.278346695e-150
1.045231719e-150
2.006424351e-150
1.166905364e-148
1.23274258e-142
8.661128785e-144
5.332557978e-152
1.149001473e-135
5.204136651e-135
0
1.77580853e-113
0
1.975239972e-88
7.436237744e-107
1.012571751e-74
0
1.336302633e-55
1.177261211e-54
0
3.645899499e-44
8.031782321e-64
-0.0009296964715
0.4648228217
9.805818738e-148
2.991766179e-148
2.319298351e-148
2.448581018e-148
2.749203966e-148
2.662587014e-148
2.318886362e-148
2.053576091e-148
1.96574663e-148
2.010363724e-148
2.064093107e-148
2.02140262e-148
1.76910633e-148
1.307201042e-148
1.056681248e-148
8.09574307e-149
4.963448526e-149
2.544643981e-149
1.197753322e-149
7.70581385e-150
5.024264822e-150
9.769100194e-139
6.933846227e-140
1.100489209e-152
5.209259053e-131
4.608148675e-132
2.098331875e-150
2.739161151e-109
0
1.145328058e-86
8.03557218e-106
4.18668325e-74
1.131073836e-92
6.041101436e-55
1.154047227e-53
0
4.152075872e-44
5.834169295e-66
-0.0005181092081
0.4760802771
2.526968989e-146
7.476740807e-147
5.505183078e-147
5.722922916e-147
7.124506674e-147
7.259007704e-147
6.19946079e-147
5.399093924e-147
5.242623716e-147
5.54752169e-147
5.835404163e-147
5.792278905e-147
4.964293807e-147
3.322655263e-147
1.948731281e-147
1.228289129e-147
6.786963244e-148
2.965901705e-148
1.405026939e-148
3.494115988e-149
5.01051411e-150
1.618637796e-136
2.158040831e-137
1.375816025e-155
9.935120182e-126
5.184822447e-127
0
6.463472083e-106
1.009858909e-124
5.055098057e-85
0
2.905921365e-73
0
2.344155219e-54
3.70397581e-53
0
4.575625221e-44
1.26768024e-73
7.740382045e-05
0.4850972091
5.356519638e-145
1.454983209e-145
1.04280206e-145
1.312910973e-145
2.3091359e-145
2.500553835e-145
2.093491525e-145
1.792400696e-145
1.74820982e-145
1.8296653e-145
1.838956326e-145
1.755071725e-145
1.548324195e-145
1.065687661e-145
4.197982589e-146
1.779194573e-146
1.061293092e-146
4.01546148e-147
1.748086444e-147
1.735966512e-148
7.833014796e-149
1.21330669e-135
1.095794262e-134
0
3.261661898e-121
1.697476998e-122
0
2.626300163e-103
0
1.566326223e-83
0
1.399120574e-72
8.505007135e-92
8.541416049e-54
3.945027521e-53
3.353072173e-70
4.88289125e-44
0
0.0007357100196
0.4926604665
1.558371999e-143
2.55590741e-144
2.334319298e-144
6.302900535e-144
2.116100725e-143
2.955670427e-143
2.404565054e-143
2.00424124e-143
2.184156633e-143
2.953094667e-143
4.002508877e-143
4.767665122e-143
3.337738577e-143
1.240090134e-143
2.227438349e-144
2.732891081e-145
1.359043333e-145
7.752703699e-146
2.293770954e-146
6.006279981e-150
2.317498968e-140
2.047808799e-149
7.038498003e-130
1.646594655e-149
1.420480641e-118
1.369727302e-119
5.574032041e-138
3.977640151e-101
4.138556333e-120
1.888168549e-82
0
1.527915041e-72
0
2.267014461e-53
3.976632852e-53
1.586358376e-51
0
1.201771815e-34
0.001459785967
0.4992824514
1.856817667e-138
1.874126308e-139
2.269544884e-139
8.258682541e-139
2.938882129e-138
4.076397463e-138
3.26568584e-138
2.685842952e-138
2.89989348e-138
3.89442116e-138
5.272787759e-138
6.308353613e-138
4.328942092e-138
1.596502654e-138
2.729498968e-139
1.920477948e-140
4.751098268e-142
6.396053046e-144
6.293989235e-145
2.660672088e-151
1.326495732e-135
1.419209527e-153
6.875007403e-126
9.038356735e-157
1.717985206e-117
5.322238612e-117
0
4.662287863e-99
0
4.868686108e-82
0
1.518504966e-72
0
2.366802395e-53
4.253962025e-71
3.103933823e-48
1.571196438e-67
8.42134365e-06
0.002210354113
0.5052559715
2.639971204e-133
2.54532379e-134
2.974946763e-134
1.064167817e-133
3.752201258e-133
5.131918281e-133
4.050176328e-133
3.287041644e-133
3.510261497e-133
4.674467425e-133
6.322245179e-133
7.591430565e-133
5.109528718e-133
1.87633946e-133
3.183747158e-134
2.17706425e-135
5.155613676e-137
6.913892145e-139
6.788475974e-140
2.766306435e-151
1.641876499e-131
0
1.925350879e-123
1.446868029e-124
0
4.584245686e-112
8.126643713e-131
3.232249408e-97
0
4.871833907e-82
4.907699365e-101
1.507535573e-72
0
2.345941857e-53
6.179000064e-73
4.145055868e-47
0
3.459908125e-05
0.002942883847
0.5107492022
3.430520122e-128
3.161606824e-129
3.565834012e-129
1.252807815e-128
4.376304479e-128
5.900155056e-128
4.587969578e-128
3.673696629e-128
3.880741095e-128
5.126698184e-128
6.93319675e-128
8.349127561e-128
5.516667521e-128
2.016942844e-128
3.39784853e-129
2.256217094e-130
5.103666406e-132
6.914851624e-134
7.715681501e-135
8.01886355e-147
8.788607693e-129
7.250768086e-130
1.916071796e-122
7.962252459e-123
6.013675778e-141
3.998418054e-107
0
8.022891644e-96
6.623522205e-115
4.841665487e-82
7.217223933e-101
1.49940001e-72
0
2.325624766e-53
2.653939623e-72
8.770716188e-47
4.008044728e-68
7.464120834e-05
0.003648438198
0.5158974124
4.092383143e-123
3.605116659e-124
3.922570991e-124
1.352592727e-123
4.68197701e-123
6.220327888e-123
4.766660938e-123
3.765022481e-123
3.934982692e-123
5.160117786e-123
6.984626454e-123
8.426471981e-123
5.473081896e-123
1.991755279e-123
3.331377474e-124
2.146166919e-125
4.627066315e-127
6.386062669e-129
8.107766079e-130
2.11003786e-131
4.370543586e-127
1.626039708e-128
0
1.325824602e-118
1.89338588e-137
1.51461712e-102
0
7.717883572e-95
0
4.820571117e-82
0
1.489074373e-72
0
2.305487964e-53
0
8.643443804e-47
3.955720767e-69
0.000120427571
0.004335664348
0.5207705743
4.499291352e-118
3.785856436e-119
3.971937166e-119
1.343613286e-118
4.611401071e-118
6.035116187e-118
4.558557347e-118
3.551121375e-118
3.673043545e-118
4.784558726e-118
6.488049978e-118
7.830431677e-118
5.007947507e-118
1.813598473e-118
3.010444916e-119
1.879828269e-120
3.854370327e-122
5.468773487e-124
7.790011146e-125
2.193817043e-125
1.037942189e-125
2.690545708e-126
6.064890351e-141
7.981694287e-114
0
1.450688959e-99
3.228461871e-118
3.444346499e-94
0
4.784776238e-82
0
1.478291848e-72
1.837254843e-91
2.064156595e-53
9.108989756e-73
8.507561867e-47
1.127034557e-67
0.0001660045294
0.005022266622
0.5254253717
4.573979437e-113
3.671912042e-114
3.711737708e-114
1.231696173e-113
4.195011678e-113
5.405431373e-113
4.025631577e-113
3.092264094e-113
3.166383831e-113
4.100026819e-113
5.573994093e-113
6.717548409e-113
4.238886735e-113
1.527288609e-113
2.51409711e-114
1.520059295e-115
2.957837309e-117
4.358813336e-119
7.012786563e-120
2.115763187e-120
4.95010738e-121
6.321050512e-122
1.208745792e-140
4.192316416e-110
2.622921311e-128
5.647423699e-98
0
7.816394314e-94
0
4.743311409e-82
0
1.412377014e-72
0
1.328693859e-53
3.885712157e-72
8.37691903e-47
2.901430055e-71
0.0002084585877
0.005695437583
0.5299161586
4.31041734e-108
3.298243909e-109
3.208757327e-109
1.044917619e-108
3.534753637e-108
4.480969719e-108
3.291520986e-108
2.492801768e-108
2.527806814e-108
3.255664688e-108
4.439417299e-108
5.331000621e-108
3.32667817e-108
1.192407359e-108
1.944409434e-109
1.136971321e-110
2.09554658e-112
3.244785619e-114
5.906807961e-115
1.895666821e-115
4.561194276e-116
5.990618306e-117
0
7.970587572e-108
7.397956368e-126
1.659516231e-97
6.761787262e-95
1.047658349e-93
0
4.697516937e-82
0
1.104128023e-72
0
4.990194526e-54
0
7.902337289e-47
4.631298575e-70
0.0002470789354
0.006355192081
0.5342868093
3.771522116e-103
2.750549164e-104
2.572185318e-104
8.225274462e-104
2.765000543e-103
3.444834341e-103
2.497038893e-103
1.864481838e-103
1.872894155e-103
2.400312153e-103
3.283504916e-103
3.919754669e-103
2.424954175e-103
8.647259551e-104
1.394889106e-104
7.87778578e-106
1.372936983e-107
2.263472924e-109
4.667724573e-110
1.594454049e-110
3.948883561e-111
5.345678192e-112
0
9.723178167e-107
2.433382302e-107
0
4.601767509e-90
1.180920041e-90
1.02135788e-109
4.102943694e-82
2.469051195e-100
5.767441094e-73
2.263970307e-91
8.435054617e-55
4.555621841e-74
5.45690937e-47
0
0.0002820296703
0.006999640429
0.538570547
3.066223638e-98
2.133802739e-99
1.916448948e-99
6.021201832e-99
2.011013654e-98
2.459108603e-98
1.760098805e-98
1.295914785e-98
1.289862139e-98
1.645340316e-98
2.257938464e-98
2.673686648e-98
1.64413931e-98
5.833763906e-99
9.292952945e-100
5.060789432e-101
8.328469605e-103
1.484237857e-104
3.469441705e-105
1.261471784e-105
3.218986745e-106
4.440159762e-107
2.757647348e-108
1.758816559e-106
2.404956328e-106
1.48398575e-124
2.514311435e-85
6.133907411e-86
0
2.411189805e-82
9.563040328e-94
1.542289703e-73
0
4.615597562e-56
6.396643616e-75
2.059741864e-47
2.942130023e-66
0.0003133633243
0.007619315764
0.5427645279
2.316560425e-93
1.541945844e-94
1.329892451e-94
4.105555777e-94
1.360987433e-93
1.631066145e-93
1.153588904e-93
8.378075315e-94
8.264742138e-94
1.049414364e-93
1.444813695e-93
1.693867823e-93
1.038152248e-93
3.666212159e-94
5.754729851e-95
3.015650862e-96
4.681315965e-98
9.175997897e-100
2.431034448e-100
9.402022466e-101
2.474658081e-101
3.438285623e-102
2.267578988e-103
5.359221444e-105
2.441010853e-102
0
1.722223161e-81
3.847921969e-82
9.757335202e-84
3.578292689e-98
3.038297189e-74
3.273838103e-74
4.045547497e-93
5.744632842e-58
2.955632902e-78
3.055217127e-48
0
0.0003469774876
0.008217970462
0.5468378887
1.626548545e-88
1.03847991e-89
8.607553254e-90
2.60931045e-89
8.571616143e-89
1.005352249e-88
7.03153796e-89
5.040028e-89
4.928683857e-89
6.230742044e-89
8.609327227e-89
9.980358539e-89
6.112851817e-89
2.149092734e-89
3.315041637e-90
1.666901021e-91
2.438773025e-93
5.362420967e-95
1.608697488e-95
6.608161759e-96
1.795951318e-96
2.516869005e-97
1.660769138e-98
4.457622171e-100
3.258328862e-98
0
4.837061284e-79
1.141024108e-79
4.132847112e-81
8.163673273e-85
4.087726819e-73
1.696356181e-73
3.058890351e-93
1.177775301e-60
0
1.212884373e-49
0
0.0003981335535
0.008817291648
0.55080799
1.062014849e-83
6.516890684e-85
5.198633813e-85
1.545454901e-84
5.022884621e-84
5.758885395e-84
3.985819679e-84
2.821403307e-84
2.735974932e-84
3.445388315e-84
4.781967778e-84
5.478029854e-84
3.361599541e-84
1.176689479e-84
1.777752268e-85
8.544642472e-87
1.177265416e-88
2.968397324e-90
1.006521819e-90
4.381891427e-91
1.230912788e-91
1.743611201e-92
1.153204103e-93
3.29397989e-95
6.154785485e-95
0
8.184753822e-78
4.235971308e-78
4.540586769e-79
0
4.096347706e-73
1.817948593e-73
0
3.014441635e-64
1.230722277e-79
8.856930256e-52
2.299944688e-71
0.000457329805
0.009392466997
0.5547023961
6.4580988e-79
3.807921549e-80
2.927875595e-80
8.523204395e-80
2.738516048e-79
3.066898336e-79
2.101467169e-79
1.46995678e-79
1.414196085e-79
1.77582179e-79
2.479234148e-79
2.806524563e-79
1.7294323e-79
6.026262617e-80
8.881744288e-81
4.060146109e-82
5.262467118e-84
1.558466121e-85
5.957602638e-86
2.741426122e-86
7.965984267e-87
1.14394471e-87
7.60620481e-89
2.274628414e-90
5.951719781e-92
0
1.21847957e-77
7.889846774e-75
2.93889455e-75
1.545119357e-76
3.70235889e-90
2.622587217e-69
2.330707177e-67
0
2.748388921e-57
9.035622131e-55
0
0.0005197116915
0.009949898213
0.5585392715
3.66671571e-74
2.070374641e-75
1.535168932e-75
4.373149741e-75
1.390046301e-74
1.520136358e-74
1.03134105e-74
7.132596973e-75
6.812514796e-75
8.54361497e-75
1.201879627e-74
1.344900778e-74
8.337446184e-75
2.89024773e-75
4.136645521e-76
1.787362194e-77
2.176247119e-79
7.763663837e-81
3.336022787e-81
1.617851202e-81
4.865308623e-82
7.108330161e-83
4.770295275e-84
1.440127903e-85
2.021456514e-87
1.308496056e-89
0
3.950444119e-70
1.488990588e-70
7.866174563e-72
3.691573934e-90
3.934101147e-65
3.023050589e-65
1.480356034e-83
6.578889379e-57
1.276644309e-56
0
0.0005840556745
0.01049074417
0.5623386664
1.949370381e-69
1.047364024e-70
7.482665933e-71
2.087008427e-70
6.579295564e-70
7.026513933e-70
4.719048976e-70
3.228067931e-70
3.063597863e-70
3.844651978e-70
5.458059077e-70
6.039156662e-70
3.77096523e-70
1.298939103e-70
1.796519756e-71
7.284688438e-73
8.317801078e-75
3.668441769e-76
1.766940239e-76
9.00547398e-77
2.803019744e-77
4.182215499e-78
2.845843526e-79
8.686806866e-81
1.211061057e-82
7.30607127e-85
1.87912251e-105
1.774341196e-65
6.742233194e-66
3.468640275e-67
0
1.89025406e-62
2.617192051e-62
1.339605329e-83
1.899526869e-56
2.331993319e-56
4.956434721e-78
0.0006480856618
0.0110064699
0.5660925966
9.724525648e-65
4.934478706e-66
3.387819119e-66
9.274058587e-66
2.910525729e-65
3.03642551e-65
2.017715112e-65
1.365678594e-65
1.289126236e-65
1.622063487e-65
2.325192636e-65
2.543651294e-65
1.60056329e-65
5.468114489e-66
7.271496422e-67
2.746121969e-68
2.936231509e-70
1.643014482e-71
8.85313335e-72
4.729921868e-72
1.523219396e-72
2.329051774e-73
1.614678739e-74
5.006134402e-76
6.974484281e-78
4.200596247e-80
0
6.868188626e-62
3.05203058e-62
2.287169594e-63
1.01817864e-81
8.550712068e-61
3.697289774e-60
1.920134958e-78
4.253325524e-55
2.84738496e-55
1.299951776e-78
0.0007229590371
0.01149557222
0.5697349845
4.552371282e-60
2.16909594e-61
1.426005313e-61
3.847398496e-61
1.206174029e-60
1.229548457e-60
8.079583639e-61
5.413648396e-61
5.088165054e-61
6.428423015e-61
9.295347091e-61
1.004621961e-60
6.368690591e-61
2.152591435e-61
2.738424504e-62
9.560177835e-64
9.572475055e-66
6.972255949e-67
4.199806485e-67
2.346979419e-67
7.813597156e-68
1.227841812e-68
8.70865173e-70
2.754348818e-71
3.852662913e-73
2.333971769e-75
5.974047793e-94
1.34421881e-59
7.046111184e-60
8.836099412e-61
1.282281081e-62
1.052749822e-59
1.045519693e-58
0
6.216675975e-55
6.905201101e-55
2.613854577e-76
0.000813028941
0.01198484039
0.5732490641
1.994601478e-55
8.914013478e-57
5.595905551e-57
1.495376526e-56
4.688202467e-56
4.670915936e-56
3.033078638e-56
2.013890042e-56
1.886786285e-56
2.394558637e-56
3.482801135e-56
3.714010409e-56
2.370302124e-56
7.90218492e-57
9.566890589e-58
3.065746494e-59
2.884737495e-61
2.805067389e-62
1.889904842e-62
1.102535162e-62
3.790210641e-63
6.134182455e-64
4.463448061e-65
1.444516433e-66
2.039772988e-68
1.257499304e-70
0
2.28947104e-58
1.662932839e-58
3.962619739e-59
1.488106557e-60
7.312879448e-59
4.442396463e-58
0
5.777316271e-55
3.760068242e-54
2.485692179e-75
0.0008853073007
0.01248474183
0.5766745393
8.137272261e-51
3.427601487e-52
2.055496856e-52
5.461567133e-52
1.707101201e-51
1.663330721e-51
1.066447237e-51
7.028131481e-52
6.571828501e-52
8.372144962e-52
1.21958407e-51
1.281485068e-51
8.227722909e-52
2.696336285e-52
3.087955248e-53
9.019742481e-55
8.054691757e-57
1.072177504e-57
8.089509775e-58
4.916555218e-58
1.74315474e-58
2.910697252e-59
2.175068467e-60
7.207108196e-62
1.032879248e-63
6.601926614e-66
0
6.150001286e-58
1.415815624e-57
8.544927972e-58
1.388001987e-58
2.041352319e-58
5.051085524e-58
5.395936541e-57
5.22176299e-57
7.042610257e-51
5.522138854e-72
0.0009566694806
0.01297093606
0.5800363536
3.070317995e-46
1.231238811e-47
7.091948355e-48
1.875620378e-47
5.802174129e-47
5.533955348e-47
3.501270028e-47
2.294631967e-47
2.144577597e-47
2.738196024e-47
3.975195126e-47
4.114005025e-47
2.657517074e-47
8.529849957e-48
9.168163276e-49
2.420870236e-50
2.093158357e-52
3.907030541e-53
3.303011021e-53
2.085996997e-53
7.622296246e-54
1.316005706e-54
1.009640787e-55
3.415576615e-57
4.985344516e-59
3.391369436e-61
1.032829894e-63
6.70667323e-76
1.484122439e-53
9.824355226e-54
2.326259838e-54
1.215888044e-55
1.534985558e-57
1.253638694e-55
5.295025628e-57
3.831240265e-48
0
0.001024936227
0.01344732492
0.5833628709
1.065301455e-41
4.112785496e-43
2.299692137e-43
6.039132749e-43
1.830560536e-42
1.711202893e-42
1.06800091e-42
6.974840111e-43
6.52647316e-43
8.336299361e-43
1.201043028e-42
1.226906635e-42
7.986753735e-43
2.501089408e-43
2.494790197e-44
5.884428275e-46
5.103004e-48
1.362418087e-48
1.288702894e-48
8.42568828e-49
3.175118659e-49
5.688064937e-50
4.478480401e-51
1.537281464e-52
2.284532774e-54
1.560733625e-56
4.794906828e-59
2.456546294e-76
3.992364451e-49
2.744410881e-49
7.304496188e-50
4.458151259e-51
4.044478058e-53
1.872759096e-54
5.205747139e-57
5.28060743e-46
1.000086549e-66
0.001085117471
0.01390334662
0.5866861542
3.39428637e-37
1.268914368e-38
6.982759033e-39
1.811868478e-38
5.325982864e-38
4.887797285e-38
3.008716519e-38
1.961826109e-38
1.84149243e-38
2.349671872e-38
3.355948531e-38
3.406504601e-38
2.241599649e-38
6.818055801e-39
6.211746614e-40
1.284506215e-41
1.182690882e-43
4.556424904e-44
4.802201465e-44
3.231743975e-44
1.260108248e-44
2.354672381e-45
1.905041828e-46
6.583644343e-48
9.905876497e-50
6.868009366e-52
2.103918345e-54
2.069576147e-72
1.037491036e-44
7.636024337e-45
2.291074693e-45
1.664038444e-46
1.864330752e-48
2.81174372e-51
5.27728317e-57
2.59864329e-44
4.320336337e-77
0.001141080775
0.01432560123
0.5899784926
1.000810833e-32
3.589165441e-34
1.970272132e-34
5.024254691e-34
1.419813012e-33
1.283716296e-33
7.782208329e-34
5.074210293e-34
4.7883524e-34
6.111137812e-34
8.696597827e-34
8.875127855e-34
5.919766646e-34
1.737670884e-34
1.415906781e-35
2.495628745e-37
2.656395745e-39
1.456465189e-39
1.704072856e-39
1.173541421e-39
4.755044825e-40
9.325752913e-41
7.787130924e-42
2.693718909e-43
4.059836244e-45
2.87580876e-47
8.985876909e-50
0
6.130720381e-41
5.737831835e-41
2.527415482e-41
3.088939569e-42
6.473795554e-44
1.649425171e-46
5.347435126e-57
6.010242758e-43
0
0.001272891592
0.01465647906
0.5931432333
2.769177884e-28
9.24593426e-30
5.117526862e-30
1.277184309e-29
3.464921711e-29
3.103712195e-29
1.845635192e-29
1.201169978e-29
1.143367612e-29
1.470228266e-29
2.111883054e-29
2.195558165e-29
1.48266045e-29
4.157286739e-30
2.954608528e-31
4.27330401e-33
5.905417732e-35
4.416263875e-35
5.71599383e-35
4.025166034e-35
1.699213357e-35
3.517548648e-36
3.054310794e-37
1.058021059e-38
1.576892841e-40
1.14099403e-42
3.750653647e-45
4.650872404e-63
2.691742322e-38
3.048129864e-38
1.756372071e-38
3.24118736e-39
1.173851144e-40
5.77964936e-43
2.202781408e-45
7.837369326e-42
2.562953328e-61
0.001354559098
0.01504683665
0.5961678048
7.276356069e-24
2.1527869e-25
1.211644684e-25
2.953256693e-25
7.841452747e-25
7.012712698e-25
4.057950993e-25
2.618925608e-25
2.525256044e-25
3.321267827e-25
4.885979423e-25
5.208869988e-25
3.531438406e-25
9.306295704e-26
5.606445189e-27
6.354599572e-29
1.31549567e-30
1.26125944e-30
1.797476816e-30
1.295717301e-30
5.717619807e-31
1.254583792e-31
1.142755245e-32
4.000970075e-34
5.846165381e-36
4.284725671e-38
1.549516675e-40
1.302775144e-57
1.243994029e-36
1.713536737e-36
1.163874234e-36
3.070296178e-37
1.933498877e-38
1.892304143e-40
3.027603588e-43
6.376285311e-41
0
0.001415713884
0.01544722091
0.599083615
1.800798146e-19
4.477931853e-21
2.593857565e-21
6.174312212e-21
1.686348329e-20
1.511737123e-20
8.470462989e-21
5.361857978e-21
5.269639065e-21
7.183676715e-21
1.086509759e-20
1.181630595e-20
7.921109744e-21
1.919100116e-21
9.458887161e-23
7.942876492e-25
2.920247161e-26
3.367009713e-26
5.259501819e-26
3.891654264e-26
1.801510821e-26
4.196414254e-27
4.04015159e-28
1.454449793e-29
2.09105495e-31
1.530054526e-33
6.494323449e-36
1.27774989e-38
9.037506848e-36
1.592381276e-35
1.32595543e-35
5.996171099e-36
9.332954649e-37
2.952461722e-38
1.18576362e-40
3.644403631e-40
1.940340437e-72
0.001473092875
0.01584600867
0.6019075749
4.098563499e-15
8.590050463e-17
4.971337443e-17
1.217200958e-16
3.514892365e-16
3.153492922e-16
1.716705509e-16
1.068164087e-16
1.072788777e-16
1.509475398e-16
2.309478313e-16
2.530695564e-16
1.645479404e-16
3.560276968e-17
1.355494409e-18
7.682113114e-21
6.267744388e-22
8.464129336e-22
1.417026194e-21
1.085532636e-21
5.291529725e-22
1.306442643e-22
1.335846297e-23
5.050766161e-25
7.299213681e-27
5.259824988e-29
2.311617391e-31
5.94115104e-34
2.541689625e-35
1.329939472e-34
2.246089322e-34
1.650211678e-34
4.995141864e-35
3.453007478e-36
3.339209751e-38
1.706610584e-39
3.607060766e-60
0.001522905978
0.01623124399
0.6046572842
3.304860779e-11
1.227604079e-12
8.461718733e-13
1.935355305e-12
4.185757473e-12
3.561929394e-12
2.050106928e-12
1.387774869e-12
1.390812852e-12
1.745111146e-12
2.182071885e-12
2.001787522e-12
1.035285316e-12
1.876690407e-13
6.455255076e-15
4.528977956e-17
1.259881931e-17
1.979522191e-17
3.477312747e-17
2.789985609e-17
1.43848712e-17
3.754746854e-18
4.091787443e-19
1.6612227e-20
2.507942658e-22
1.772270716e-24
7.952390859e-27
2.18490886e-29
4.178719083e-32
1.903913376e-30
4.181239341e-30
3.305104904e-30
1.133099058e-30
9.098429123e-32
1.04287055e-33
1.413399937e-36
2.453081649e-57
0.001577875456
0.01663943391
0.6073453426
2.501093386e-08
1.904155807e-09
1.65298106e-09
3.092348771e-09
4.887727985e-09
3.961765656e-09
2.455617205e-09
1.814697584e-09
1.772293395e-09
1.958579436e-09
2.018156902e-09
1.552286147e-09
6.72385415e-10
1.183369413e-10
5.299042395e-12
2.608077354e-13
2.296647399e-13
4.2129086e-13
7.622396033e-13
6.505771627e-13
3.564024415e-13
9.820635641e-14
1.14697532e-14
5.120104848e-16
8.487957299e-18
5.936268661e-20
2.722300264e-22
7.939585478e-25
1.571309951e-27
5.427397244e-27
1.720979279e-26
1.641488761e-26
8.740119799e-27
1.471863623e-27
4.721611472e-29
1.775761966e-31
0
0.001575568417
0.01702720667
0.6100121542
2.228924569e-06
3.95599906e-07
3.932218053e-07
6.032231046e-07
7.347212271e-07
5.777710498e-07
3.912890732e-07
3.101526171e-07
2.908764271e-07
2.840100883e-07
2.477715471e-07
1.631441146e-07
6.524946251e-08
1.341533437e-08
1.266500006e-09
4.500171319e-10
5.90795371e-10
1.091274001e-09
1.588971955e-09
1.380496741e-09
7.885899117e-10
2.557929453e-10
4.261149251e-11
3.36249612e-12
1.177678964e-13
1.724946758e-15
1.035951945e-17
3.147011022e-20
7.426984343e-23
3.074044286e-24
5.170318182e-24
6.394959843e-24
4.855375151e-24
1.607178709e-24
1.368641187e-25
1.584048578e-27
3.122290446e-48
0.001633815814
0.0173695703
0.6126732465
-0.0001137001027
1.745687468e-06
1.90614892e-06
-2.427303336e-06
-1.842393686e-06
3.048995242e-06
5.061782017e-06
5.355756898e-06
5.384823087e-06
5.224303057e-06
4.511869931e-06
3.026927068e-06
1.358439632e-06
4.096653166e-07
1.144642588e-07
1.087108751e-07
1.602298005e-07
2.551921029e-07
2.990059707e-07
2.493205109e-07
1.434453922e-07
5.3329595e-08
1.198982469e-08
1.510994704e-09
9.824124949e-11
3.014217624e-12
4.113479229e-14
2.784797441e-16
1.294356686e-18
5.055916141e-21
5.585501095e-22
4.76705622e-22
3.802306059e-22
1.794798394e-22
2.965353758e-23
8.261813042e-25
5.284401159e-45
0.00161134981
0.01769033604
0.6153391777
-0.003023389692
-0.001198353571
-0.001219064801
-0.001369772337
-0.00107908365
-0.0006659691804
-0.0004044634585
-0.0002659664038
-0.0001697692675
-8.764221797e-05
-2.767180665e-05
4.293163338e-07
5.36223791e-06
3.704613906e-06
2.67427724e-06
3.06792676e-06
3.694246111e-06
4.348281465e-06
4.756508713e-06
4.322373072e-06
2.82458318e-06
1.262731969e-06
3.715769152e-07
6.784482846e-08
7.115855972e-09
3.943773094e-10
1.094293944e-11
1.603937665e-13
1.415342581e-15
8.472609525e-18
6.43554223e-20
1.586790292e-20
9.845567341e-21
4.843173156e-21
1.126672369e-21
5.760251991e-23
2.874468578e-43
0.001726110206
0.01794823113
0.6179013688
-0.009650205418
-0.006313632693
-0.006026898952
-0.005527918756
-0.004257730332
-0.003177689158
-0.002432491251
-0.001851483662
-0.00131792002
-0.000843274517
-0.0004353356761
-0.0001876490291
-8.658395587e-05
-5.747596687e-05
-7.390722065e-05
-0.0001110723531
-0.000129784083
-9.457289449e-05
-4.048563517e-05
-4.844395352e-06
5.853027297e-06
4.787735189e-06
1.981400259e-06
5.032923767e-07
7.812208624e-08
7.182495824e-09
3.847653928e-10
1.190512965e-11
2.138604233e-13
2.947828313e-15
1.819324578e-16
4.739297424e-17
1.560770984e-17
3.757756172e-18
4.751549922e-19
1.728985206e-20
0
0.00170880876
0.01824920042
0.6204177248
-0.0184662796
-0.01494687248
-0.01348612294
-0.01109105268
-0.008388791534
-0.006500304489
-0.005050590675
-0.003744279862
-0.002563793247
-0.00165770867
-0.001119741051
-0.0008975679824
-0.0008747955864
-0.000938441503
-0.001044199979
-0.0009822577584
-0.0007167811215
-0.0004026054941
-0.0001723136854
-5.490954865e-05
-8.863850824e-06
2.85738777e-06
2.876220081e-06
1.181673988e-06
3.009048102e-07
5.443026825e-08
9.156439657e-09
1.445284428e-09
1.692218796e-10
3.495083715e-11
1.08281306e-11
3.343791513e-12
9.015018145e-13
1.760301999e-13
1.91365248e-14
6.184394428e-16
2.370484211e-36
0.001716100736
0.01853951491
0.6228025101
-0.02584584166
-0.02309881636
-0.01963835003
-0.01503095047
-0.01153128805
-0.00916470832
-0.007111501389
-0.005174804175
-0.003586367555
-0.002596319846
-0.00219501049
-0.002177746635
-0.002292860194
-0.002431335967
-0.002265175643
-0.001636304104
-0.0009544764908
-0.0004953188503
-0.0002381080085
-0.0001303935836
-6.490169552e-05
-2.390395519e-05
-6.695615685e-06
-9.599359865e-07
8.508783956e-07
1.482709666e-06
1.430019683e-06
9.139072019e-07
3.482350706e-07
1.251204482e-07
4.328760956e-08
1.318122321e-08
3.197526277e-09
5.335944401e-10
5.831398047e-11
2.352976941e-12
0
0.001836202467
0.01873105875
0.6252858604
-0.02970972032
-0.027229771
-0.02180926359
-0.01609895237
-0.0126764415
-0.01021112113
-0.007881854393