/*--------------------------------*- C++ -*----------------------------------*\
| =========                 |                                                 |
| \\      /  F ield         | OpenFOAM: The Open Source CFD Toolbox           |
|  \\    /   O peration     | Version:  v1912                                 |
|   \\  /    A nd           | Website:  www.openfoam.com                      |
|    \\/     M anipulation  |                                                 |
\*---------------------------------------------------------------------------*/
FoamFile
{
    version     2.0;
    format      ascii;
    class       volScalarField;
    location    "1";
    object      k.gas_0;
}
// * * * * * * * * * * * * * * * * * * * * * * * * * * * * * * * * * * * * * //

dimensions      [0 2 -2 0 0 0 0];


internalField   nonuniform List<scalar> 
4800
(
4.416193592e-07
6.281667336e-07
7.425645132e-07
8.316265528e-07
9.131867235e-07
9.954482014e-07
1.083425996e-06
1.180709322e-06
1.290126992e-06
1.41403855e-06
1.554463335e-06
1.713129265e-06
1.891478203e-06
2.090649276e-06
2.311454559e-06
2.554357885e-06
2.819465267e-06
3.106533494e-06
3.415001627e-06
3.74404819e-06
4.092675016e-06
4.459816999e-06
4.844475747e-06
5.245874309e-06
5.663627854e-06
6.097932893e-06
6.549788684e-06
7.021213276e-06
7.515499744e-06
8.037425763e-06
8.593823073e-06
9.195498204e-06
9.841226703e-06
1.062196327e-05
1.125783066e-05
1.27395941e-05
1.263787107e-05
1.707223021e-05
7.767613308e-06
3.152673659e-05
1.051416422e-06
1.484039559e-06
1.739880147e-06
1.920773233e-06
2.061353132e-06
2.175962494e-06
2.272227761e-06
2.354766688e-06
2.426616136e-06
2.489899942e-06
2.546179749e-06
2.596654596e-06
2.642281082e-06
2.683849038e-06
2.722030681e-06
2.757413147e-06
2.79052015e-06
2.821826325e-06
2.851766572e-06
2.880742024e-06
2.909123846e-06
2.93725579e-06
2.965456278e-06
2.994020636e-06
3.023223966e-06
3.053321086e-06
3.084552507e-06
3.117142589e-06
3.151388603e-06
3.187134299e-06
3.226375516e-06
3.26176416e-06
3.321556416e-06
3.311972414e-06
3.510410605e-06
3.1782821e-06
4.00535148e-06
2.727246377e-06
9.261914004e-06
6.293544118e-05
9.896873755e-07
1.394088567e-06
1.63373664e-06
1.803648683e-06
1.936276435e-06
2.045039488e-06
2.137053383e-06
2.216609966e-06
2.286510631e-06
2.348692109e-06
2.404553787e-06
2.455143302e-06
2.501268443e-06
2.543567916e-06
2.582557855e-06
2.618663347e-06
2.652240359e-06
2.683591301e-06
2.712976242e-06
2.740621121e-06
2.766723806e-06
2.791458633e-06
2.814979854e-06
2.837424314e-06
2.858913576e-06
2.879555313e-06
2.899446253e-06
2.918667514e-06
2.937332919e-06
2.955298161e-06
2.973822028e-06
2.98702516e-06
3.021864271e-06
2.969503969e-06
3.220279477e-06
2.560437821e-06
4.203290381e-06
8.019953292e-07
4.625653719e-06
8.13375058e-05
9.956676079e-07
1.403526986e-06
1.645319646e-06
1.816698021e-06
1.950392686e-06
2.059942028e-06
2.152528312e-06
2.232486174e-06
2.302647436e-06
2.364971819e-06
2.420877102e-06
2.471426344e-06
2.517440683e-06
2.559570623e-06
2.59834281e-06
2.634191698e-06
2.667481509e-06
2.698521784e-06
2.727578578e-06
2.754882653e-06
2.780635555e-06
2.805014222e-06
2.828174557e-06
2.850254299e-06
2.871375418e-06
2.891646322e-06
2.911164205e-06
2.930017877e-06
2.948291356e-06
2.966042112e-06
2.983577701e-06
2.999254582e-06
3.024104821e-06
3.001437316e-06
3.172937532e-06
2.720877217e-06
3.822601083e-06
1.581161767e-06
1.57126097e-05
9.719674403e-05
9.948647444e-07
1.402160223e-06
1.643710356e-06
1.814932375e-06
1.948530431e-06
2.058025672e-06
2.150589202e-06
2.230548144e-06
2.30072918e-06
2.363087941e-06
2.419038849e-06
2.469642099e-06
2.51571631e-06
2.557909725e-06
2.596746942e-06
2.632660549e-06
2.66601307e-06
2.697112506e-06
2.726223518e-06
2.753575597e-06
2.779369122e-06
2.803779933e-06
2.826962853e-06
2.849054508e-06
2.87017566e-06
2.890433436e-06
2.909923096e-06
2.928733258e-06
2.946933224e-06
2.96463622e-06
2.981860897e-06
2.998176533e-06
3.019540639e-06
3.009191575e-06
3.138644887e-06
2.782883251e-06
3.677020434e-06
2.562433108e-06
1.883689738e-05
0.0001121768323
9.947842918e-07
1.402046427e-06
1.643710171e-06
1.815022387e-06
1.94870309e-06
2.058275211e-06
2.150909437e-06
2.230932538e-06
2.301171001e-06
2.363580262e-06
2.419574528e-06
2.470213775e-06
2.516316406e-06
2.558530454e-06
2.597380318e-06
2.633298416e-06
2.666647129e-06
2.697734355e-06
2.726824683e-06
2.754147568e-06
2.779903375e-06
2.804267931e-06
2.827396028e-06
2.84942423e-06
2.870473196e-06
2.89064983e-06
2.910048826e-06
2.928758852e-06
2.946840475e-06
2.964453641e-06
2.981325002e-06
2.998511967e-06
3.015128233e-06
3.021850021e-06
3.0948031e-06
2.869386054e-06
3.833583707e-06
4.427574197e-07
6.077835792e-06
0.0001274949981
9.946175259e-07
1.401763287e-06
1.6435139e-06
1.814900826e-06
1.948656947e-06
2.058304799e-06
2.151013039e-06
2.231106995e-06
2.301412076e-06
2.363882825e-06
2.419932646e-06
2.470620781e-06
2.516764954e-06
2.559012568e-06
2.597887451e-06
2.63382151e-06
2.667176687e-06
2.698260514e-06
2.727337296e-06
2.754636276e-06
2.780357675e-06
2.804677233e-06
2.827749696e-06
2.849711601e-06
2.870683618e-06
2.890772601e-06
2.910072859e-06
2.928674012e-06
2.946622336e-06
2.964177218e-06
2.980425721e-06
2.999827337e-06
3.006206385e-06
3.047136983e-06
3.024232528e-06
3.02874326e-06
3.282760145e-06
3.835856204e-06
2.336601311e-05
0.0001428614322
9.944586403e-07
1.401490686e-06
1.643358813e-06
1.814845068e-06
1.948698297e-06
2.058441307e-06
2.151240857e-06
2.231420954e-06
2.301805995e-06
2.364349657e-06
2.420464566e-06
2.471209234e-06
2.517400707e-06
2.559685755e-06
2.598587636e-06
2.634537752e-06
2.667897624e-06
2.698974456e-06
2.728032316e-06
2.755300317e-06
2.780978642e-06
2.805243091e-06
2.828248552e-06
2.850131774e-06
2.871013695e-06
2.89100159e-06
2.91018924e-06
2.928671859e-06
2.946457567e-06
2.964046399e-06
2.97914298e-06
3.00334791e-06
2.987530439e-06
3.113563112e-06
2.805054179e-06
3.615814371e-06
1.971496346e-06
4.116666817e-06
5.877758592e-05
0.0001603571225
9.942972595e-07
1.401206318e-06
1.643216027e-06
1.81482199e-06
1.948791425e-06
2.058647663e-06
2.151555397e-06
2.231837244e-06
2.302316513e-06
2.364945944e-06
2.421137304e-06
2.471948306e-06
2.518195238e-06
2.56052417e-06
2.599457725e-06
2.635426756e-06
2.668792334e-06
2.699861325e-06
2.728897594e-06
2.756130178e-06
2.781759329e-06
2.805961052e-06
2.828890578e-06
2.850685121e-06
2.871466155e-06
2.891341888e-06
2.910405305e-06
2.928763243e-06
2.946354731e-06
2.964078059e-06
2.977644933e-06
3.007365524e-06
2.971329432e-06
3.15776713e-06
2.682704573e-06
3.942597178e-06
1.178861708e-06
1.127378546e-05
7.987802972e-05
0.0001790102261
9.941363025e-07
1.400915837e-06
1.643094693e-06
1.814843594e-06
1.948950778e-06
2.058940477e-06
2.151975173e-06
2.232376054e-06
2.302965296e-06
2.365694647e-06
2.421974965e-06
2.472863102e-06
2.519174531e-06
2.561554562e-06
2.600525134e-06
2.636516511e-06
2.669889299e-06
2.700950037e-06
2.729962426e-06
2.75715551e-06
2.782729734e-06
2.806861476e-06
2.829706535e-06
2.851402867e-06
2.872072822e-06
2.891825828e-06
2.910755286e-06
2.92897546e-06
2.946389655e-06
2.964093638e-06
2.976930861e-06
3.008341614e-06
2.967939114e-06
3.159205917e-06
2.681020374e-06
4.005919859e-06
6.254094768e-07
4.126779064e-06
0.000104694325
0.0001986206077
9.939773858e-07
1.400621789e-06
1.642999764e-06
1.814917002e-06
1.949185473e-06
2.059330793e-06
2.152513064e-06
2.233052021e-06
2.303768655e-06
2.366613674e-06
2.422996976e-06
2.47397449e-06
2.520360812e-06
2.562800432e-06
2.601814547e-06
2.637832795e-06
2.671215297e-06
2.702268278e-06
2.731255322e-06
2.758405569e-06
2.783919788e-06
2.80797492e-06
2.830727558e-06
2.852316697e-06
2.872865944e-06
2.892486104e-06
2.911273003e-06
2.929337556e-06
2.946624411e-06
2.963982408e-06
2.977593437e-06
3.005007658e-06
2.976593205e-06
3.13749761e-06
2.745938991e-06
3.660048871e-06
1.502092904e-06
1.429498478e-05
0.0001293358682
0.0002191435793
9.938227891e-07
1.400328042e-06
1.642938195e-06
1.815051905e-06
1.949507653e-06
2.059833057e-06
2.153185697e-06
2.233883824e-06
2.304747203e-06
2.367725465e-06
2.424227497e-06
2.475308252e-06
2.521781382e-06
2.56429049e-06
2.603355975e-06
2.639406804e-06
2.672802591e-06
2.703849259e-06
2.732810319e-06
2.759915105e-06
2.785364849e-06
2.809337244e-06
2.831989919e-06
2.853463208e-06
2.873882353e-06
2.893359776e-06
2.911994972e-06
2.929890458e-06
2.947066707e-06
2.963943212e-06
2.978954577e-06
2.999423474e-06
2.995828209e-06
3.081416566e-06
2.85729898e-06
3.546036484e-06
1.823608877e-06
2.108570834e-06
0.0001544399158
0.0002408284251
9.936752535e-07
1.400039227e-06
1.642918149e-06
1.815259621e-06
1.949931448e-06
2.06046403e-06
2.154012349e-06
2.23489309e-06
2.305924786e-06
2.36905597e-06
2.425694474e-06
2.476894215e-06
2.523467833e-06
2.566057972e-06
2.605184166e-06
2.641274659e-06
2.674688527e-06
2.705731396e-06
2.734666752e-06
2.761724208e-06
2.787105607e-06
2.810989582e-06
2.833535051e-06
2.854883983e-06
2.875163581e-06
2.894488326e-06
2.912961495e-06
2.930679964e-06
2.947721924e-06
2.964208913e-06
2.980035329e-06
2.996445154e-06
3.005488402e-06
3.056072833e-06
2.918260293e-06
3.352808206e-06
1.976725621e-06
9.966721572e-06
0.0001810846115
0.0002636289793
9.935380886e-07
1.399760949e-06
1.642949302e-06
1.815553466e-06
1.950473436e-06
2.061243304e-06
2.155015491e-06
2.236104972e-06
2.307329107e-06
2.370635311e-06
2.427430323e-06
2.478766963e-06
2.525456786e-06
2.568141398e-06
2.607339388e-06
2.643478205e-06
2.676916352e-06
2.707959143e-06
2.736870077e-06
2.763879137e-06
2.789188914e-06
2.812979179e-06
2.835410392e-06
2.856626424e-06
2.876756758e-06
2.895918427e-06
2.91421851e-06
2.931751378e-06
2.948635335e-06
2.964791118e-06
2.981146919e-06
2.994340509e-06
3.014533804e-06
3.029962242e-06
2.96034378e-06
3.549321753e-06
3.47485121e-06
1.902274315e-05
0.0002080700929
0.0002875081178
9.934152494e-07
1.399499905e-06
1.643043016e-06
1.815948972e-06
1.951152916e-06
2.062193632e-06
2.156221128e-06
2.237548544e-06
2.308992153e-06
2.372498254e-06
2.429472447e-06
2.4809664e-06
2.527790503e-06
2.570585228e-06
2.609868122e-06
2.646065755e-06
2.679535986e-06
2.710583796e-06
2.739472715e-06
2.766433175e-06
2.791668653e-06
2.815360266e-06
2.83767026e-06
2.858744667e-06
2.878715593e-06
2.897702984e-06
2.915818549e-06
2.933152157e-06
2.949875185e-06
2.965642606e-06
2.982740112e-06
2.991693105e-06
3.027254813e-06
2.991670024e-06
3.06013436e-06
3.333816615e-06
5.062944689e-07
2.955657403e-05
0.0002354827997
0.0003126550495
9.933114343e-07
1.399264049e-06
1.643212578e-06
1.816464193e-06
1.951992239e-06
2.063341305e-06
2.157659261e-06
2.2392573e-06
2.310950744e-06
2.374684796e-06
2.431863879e-06
2.483538442e-06
2.530517626e-06
2.573440656e-06
2.612823916e-06
2.649092981e-06
2.682604972e-06
2.713664481e-06
2.742535069e-06
2.769447678e-06
2.794606806e-06
2.818195124e-06
2.8403769e-06
2.861300652e-06
2.881101479e-06
2.899902516e-06
2.917820719e-06
2.934941043e-06
2.951490395e-06
2.966861948e-06
2.984617029e-06
2.989764098e-06
3.03865302e-06
2.959347663e-06
3.146586342e-06
2.992905883e-06
3.609079711e-06
7.689483917e-06
0.0002631750403
0.000339261837
9.93232198e-07
1.399062782e-06
1.643473479e-06
1.817120064e-06
1.953017195e-06
2.06471658e-06
2.159364396e-06
2.241269731e-06
2.313247154e-06
2.377240838e-06
2.434653998e-06
2.486535798e-06
2.533694025e-06
2.576766526e-06
2.616268363e-06
2.652623962e-06
2.686189575e-06
2.717269311e-06
2.746126726e-06
2.772993316e-06
2.798074726e-06
2.821555365e-06
2.843601806e-06
2.864365437e-06
2.88398477e-06
2.90258615e-06
2.920294076e-06
2.937176278e-06
2.953589229e-06
2.968290271e-06
2.987772985e-06
2.98526862e-06
3.058527511e-06
2.910009408e-06
3.257506482e-06
2.781855142e-06
4.271640268e-06
9.112924611e-06
0.000293000246
0.0003672727979
9.931840849e-07
1.398907176e-06
1.643843723e-06
1.817940789e-06
1.954257518e-06
2.06635421e-06
2.161376067e-06
2.243629982e-06
2.315929853e-06
2.380218976e-06
2.43789938e-06
2.490018878e-06
2.537383781e-06
2.580630391e-06
2.620272244e-06
2.65673241e-06
2.690366088e-06
2.721476757e-06
2.750327891e-06
2.777151552e-06
2.802154637e-06
2.825523494e-06
2.847427336e-06
2.868020798e-06
2.887446236e-06
2.905833514e-06
2.923315755e-06
2.939938625e-06
2.956219265e-06
2.970117672e-06
2.991795403e-06
2.979997074e-06
3.081037601e-06
2.863464278e-06
3.338310675e-06
2.675847771e-06
5.084373742e-06
1.85827131e-05
0.0003233176875
0.0003966629378
9.931747891e-07
1.398810238e-06
1.644344191e-06
1.818954285e-06
1.95574743e-06
2.068294111e-06
2.163739463e-06
2.246388593e-06
2.319054347e-06
2.383679415e-06
2.441664782e-06
2.494056863e-06
2.541660342e-06
2.585109761e-06
2.624916873e-06
2.661503112e-06
2.695222365e-06
2.726377273e-06
2.755231077e-06
2.782016385e-06
2.806941432e-06
2.830194736e-06
2.851948515e-06
2.872361057e-06
2.891578973e-06
2.909736321e-06
2.926974069e-06
2.943325206e-06
2.959408213e-06
2.972729491e-06
2.995367616e-06
2.979441351e-06
3.08919493e-06
2.860194914e-06
3.331009614e-06
2.728189404e-06
6.285725e-06
2.927475752e-05
0.0003538738522
0.0004274144161
9.932133425e-07
1.398787198e-06
1.644999065e-06
1.820192696e-06
1.957526176e-06
2.070582155e-06
2.166506379e-06
2.249603265e-06
2.322684e-06
2.387690963e-06
2.446024288e-06
2.498728964e-06
2.546607891e-06
2.590293591e-06
2.630295697e-06
2.667033637e-06
2.70085964e-06
2.732075203e-06
2.760943107e-06
2.787696425e-06
2.812544795e-06
2.835679155e-06
2.857275119e-06
2.877495125e-06
2.896490572e-06
2.914400222e-06
2.931373412e-06
2.947432177e-06
2.963286088e-06
2.976038161e-06
2.999594523e-06
2.978474541e-06
3.106803459e-06
2.813019708e-06
3.450738641e-06
2.842872547e-06
5.950285539e-06
4.16898423e-05
0.0003844811226
0.0004595704004
9.933103202e-07
1.398855855e-06
1.645836294e-06
1.821692964e-06
1.959638698e-06
2.073270953e-06
2.169736218e-06
2.253339615e-06
2.326890903e-06
2.392332074e-06
2.45106251e-06
2.504125791e-06
2.552322886e-06
2.596283983e-06
2.636516164e-06
2.673436353e-06
2.70739467e-06
2.738691047e-06
2.767587465e-06
2.794317324e-06
2.819091692e-06
2.842104152e-06
2.863534181e-06
2.88354897e-06
2.902305423e-06
2.919947604e-06
2.936633921e-06
2.952376374e-06
2.967966187e-06
2.980201346e-06
3.004083898e-06
2.980938291e-06
3.113088723e-06
2.805329492e-06
3.514449061e-06
2.552331003e-06
8.735231232e-06
5.719735998e-05
0.0004147206538
0.000493379031
9.934780621e-07
1.399037008e-06
1.64688814e-06
1.823497503e-06
1.962136456e-06
2.076420386e-06
2.17349678e-06
2.257672448e-06
2.331757103e-06
2.397691965e-06
2.45687575e-06
2.510350678e-06
2.558915597e-06
2.603197959e-06
2.643701743e-06
2.680840702e-06
2.714962233e-06
2.746364142e-06
2.775307116e-06
2.802024666e-06
2.826729285e-06
2.849617408e-06
2.870872908e-06
2.890668506e-06
2.909167492e-06
2.926520164e-06
2.942894428e-06
2.958295029e-06
2.973581461e-06
2.985316162e-06
3.009300666e-06
2.984898014e-06
3.116209322e-06
2.825889263e-06
3.433571443e-06
2.748476414e-06
2.920112998e-06
6.396059798e-06
0.0004451251933
0.0005290016711
9.937309937e-07
1.399355109e-06
1.648191929e-06
1.825655022e-06
1.965078297e-06
2.080098582e-06
2.177865441e-06
2.262687461e-06
2.337376083e-06
2.403872027e-06
2.463573476e-06
2.517521269e-06
2.566511833e-06
2.6111694e-06
2.651994156e-06
2.689395794e-06
2.723718098e-06
2.755255969e-06
2.784268078e-06
2.810987661e-06
2.835628628e-06
2.858390503e-06
2.879462202e-06
2.899022944e-06
2.917243612e-06
2.934281739e-06
2.950316713e-06
2.965342837e-06
2.980300681e-06
2.991490689e-06
3.01551784e-06
2.989928351e-06
3.121757046e-06
2.828434388e-06
3.470742361e-06
2.614710934e-06
3.355541596e-06
1.572962662e-05
0.0004776714799
0.0005663325283
9.94086223e-07
1.399838948e-06
1.649791066e-06
1.828221742e-06
1.968531853e-06
2.084383592e-06
2.182930516e-06
2.268482867e-06
2.343854839e-06
2.410988187e-06
2.471280823e-06
2.525772133e-06
2.575255747e-06
2.620352037e-06
2.661556552e-06
2.699273877e-06
2.733842876e-06
2.76555443e-06
2.794664151e-06
2.821404169e-06
2.845989743e-06
2.868623865e-06
2.889501341e-06
2.908809178e-06
2.926727523e-06
2.943422224e-06
2.959088683e-06
2.973695141e-06
2.988348403e-06
2.998675159e-06
3.023950517e-06
2.992226485e-06
3.140990945e-06
2.802089488e-06
3.539588537e-06
2.477769341e-06
5.165500082e-06
2.853345947e-05
0.0005103131266
0.0006054114382
9.945644442e-07
1.400521938e-06
1.651735944e-06
1.831262651e-06
1.972575146e-06
2.089365462e-06
2.188793033e-06
2.275170841e-06
2.351316411e-06
2.419173985e-06
2.480141966e-06
2.535258538e-06
2.585314114e-06
2.630924178e-06
2.672578532e-06
2.710675529e-06
2.745547455e-06
2.777479551e-06
2.806722998e-06
2.833507248e-06
2.858048426e-06
2.880553524e-06
2.901224442e-06
2.920257793e-06
2.937845329e-06
2.954162803e-06
2.969426956e-06
2.983567742e-06
2.997904543e-06
3.007278091e-06
3.033711845e-06
2.996822806e-06
3.157140921e-06
2.789330047e-06
3.606871431e-06
2.219187387e-06
6.588409441e-07
4.413781966e-05
0.0005426688711
0.0006462406196
9.951907361e-07
1.40144229e-06
1.654084617e-06
1.834852435e-06
1.977297666e-06
2.0951475e-06
2.195569036e-06
2.282879675e-06
2.359901473e-06
2.428582522e-06
2.490322903e-06
2.546159947e-06
2.596880328e-06
2.643093395e-06
2.685281717e-06
2.723835946e-06
2.759079859e-06
2.791290672e-06
2.820713272e-06
2.847572395e-06
2.872083809e-06
2.894458871e-06
2.914908169e-06
2.933640495e-06
2.950862501e-06
2.966761821e-06
2.981585941e-06
2.995197907e-06
3.009264953e-06
3.017297194e-06
3.046080573e-06
3.000011965e-06
3.183299302e-06
2.758693534e-06
3.689951366e-06
2.062817494e-06
1.543480269e-06
6.128671467e-05
0.0005744562776
0.0006886463733
9.959948413e-07
1.402644928e-06
1.656904201e-06
1.839076802e-06
1.98280184e-06
2.101847779e-06
2.203391207e-06
2.291755591e-06
2.369769762e-06
2.439387796e-06
2.502012893e-06
2.558681706e-06
2.610176503e-06
2.657099349e-06
2.699923744e-06
2.739030216e-06
2.774731488e-06
2.80729354e-06
2.836952e-06
2.863924893e-06
2.88842577e-06
2.910670151e-06
2.930879184e-06
2.949277362e-06
2.966090763e-06
2.981521889e-06
2.995859666e-06
3.008876694e-06
3.022691709e-06
3.029125115e-06
3.060860693e-06
3.00386023e-06
3.213966862e-06
2.724654341e-06
3.79020971e-06
1.826362713e-06
3.506667227e-06
8.322892749e-05
0.0006049663845
0.0007327325304
9.970115463e-07
1.404185806e-06
1.660274e-06
1.844035207e-06
1.989205978e-06
2.109602353e-06
2.212411853e-06
2.301965899e-06
2.381103383e-06
2.451787483e-06
2.515426708e-06
2.573057503e-06
2.625456743e-06
2.673217614e-06
2.716802258e-06
2.756577864e-06
2.792842625e-06
2.825847319e-06
2.855813716e-06
2.88294995e-06
2.907464928e-06
2.929577705e-06
2.949522177e-06
2.967543364e-06
2.983893661e-06
2.998794313e-06
3.01259101e-06
3.024932105e-06
3.038526821e-06
3.043061938e-06
3.078422788e-06
3.008620963e-06
3.249952071e-06
2.686061398e-06
3.899773044e-06
1.65666698e-06
6.041211609e-06
1.199570148e-05
0.0006347871148
0.000778878911
9.982827706e-07
1.406134909e-06
1.664288338e-06
1.849843718e-06
1.996647891e-06
2.11856986e-06
2.222808268e-06
2.313704587e-06
2.394112523e-06
2.466009333e-06
2.530811934e-06
2.589557041e-06
2.643014977e-06
2.691767934e-06
2.736263918e-06
2.776853212e-06
2.813814714e-06
2.847378301e-06
2.877745536e-06
2.905108901e-06
2.929669008e-06
2.951647592e-06
2.971293894e-06
2.988879813e-06
3.004694736e-06
3.018984893e-06
3.032175898e-06
3.043736773e-06
3.057186722e-06
3.059372154e-06
3.099441708e-06
3.014169312e-06
3.291883976e-06
2.645227825e-06
4.020154123e-06
1.476046336e-06
6.636208001e-06
1.885117285e-05
0.0006675011251
0.0008270396312
9.998623415e-07
1.408575223e-06
1.669056809e-06
1.856635976e-06
2.005287026e-06
2.12893506e-06
2.234787449e-06
2.327197986e-06
2.40904219e-06
2.482318962e-06
2.548457873e-06
2.608496562e-06
2.66319736e-06
2.713128769e-06
2.758721235e-06
2.800303786e-06
2.83813003e-06
2.872401081e-06
2.903289314e-06
2.930962781e-06
2.955607458e-06
2.977446054e-06
2.996746668e-06
3.013816261e-06
3.028995821e-06
3.042567544e-06
3.055067807e-06
3.065731575e-06
3.079088389e-06
3.078595644e-06
3.123925608e-06
3.022526538e-06
3.335822205e-06
2.612541658e-06
4.130554737e-06
1.336709616e-06
7.843616413e-06
3.452974843e-05
0.0007003574657
0.0008771424661
1.001823233e-06
1.411604476e-06
1.674705677e-06
1.864564677e-06
2.015306949e-06
2.140912339e-06
2.248589967e-06
2.342708465e-06
2.426175833e-06
2.501024002e-06
2.568701083e-06
2.63024661e-06
2.686412563e-06
2.737749957e-06
2.784667598e-06
2.827468361e-06
2.866373363e-06
2.901544305e-06
2.933110804e-06
2.96120332e-06
2.985983339e-06
3.007670436e-06
3.026556234e-06
3.042995031e-06
3.057399658e-06
3.07010408e-06
3.081796062e-06
3.091424224e-06
3.104723352e-06
3.101267651e-06
3.152390879e-06
3.033753764e-06
3.385463129e-06
2.575773137e-06
4.272909579e-06
1.17226619e-06
9.737560721e-06
5.21833386e-05
0.0007326200787
0.0009293012519
1.00426761e-06
1.415346138e-06
1.681384648e-06
1.873806901e-06
2.02692158e-06
2.154752773e-06
2.264496597e-06
2.360539625e-06
2.445839045e-06
2.522476726e-06
2.591927819e-06
2.655234819e-06
2.713135516e-06
2.766158398e-06
2.814686254e-06
2.858990647e-06
2.899251268e-06
2.935575887e-06
2.968031589e-06
2.996689739e-06
3.021671987e-06
3.043187482e-06
3.061556491e-06
3.077198839e-06
3.090629815e-06
3.10226051e-06
3.112973247e-06
3.121433591e-06
3.134514287e-06
3.128633987e-06
3.1829455e-06
3.056898678e-06
3.416977863e-06
2.596976236e-06
4.322323019e-06
1.244496271e-06
1.212736378e-05
7.206774255e-05
0.0007639868994
0.0009835585725
1.007343377e-06
1.419962427e-06
1.689274107e-06
1.884571014e-06
2.040385669e-06
2.170758593e-06
2.282845254e-06
2.381054497e-06
2.468418932e-06
2.547094834e-06
2.618596308e-06
2.683969397e-06
2.743931289e-06
2.798981988e-06
2.849474163e-06
2.895643572e-06
2.937618785e-06
2.975434399e-06
3.009066798e-06
3.038494077e-06
3.063770719e-06
3.085083691e-06
3.102786575e-06
3.117390084e-06
3.12955969e-06
3.13982201e-06
3.149316317e-06
3.156442501e-06
3.169040988e-06
3.161855976e-06
3.214018832e-06
3.101723637e-06
3.401597469e-06
2.752432935e-06
4.164275297e-06
1.274020095e-06
1.611980695e-06
9.709707897e-05
0.0007934371475
0.001039639568
1.011279744e-06
1.425668294e-06
1.698594921e-06
1.89711273e-06
2.056022644e-06
2.189325684e-06
2.30408791e-06
2.404746892e-06
2.49445105e-06
2.575465141e-06
2.649356615e-06
2.717172981e-06
2.779598517e-06
2.837098627e-06
2.889991334e-06
2.938472705e-06
2.98261249e-06
3.022349004e-06
3.057531825e-06
3.087996819e-06
3.113684776e-06
3.134741817e-06
3.151556491e-06
3.164763613e-06
3.175252259e-06
3.183717339e-06
3.191677375e-06
3.197109684e-06
3.209602245e-06
3.199218824e-06
3.256668249e-06
3.132913042e-06
3.446336794e-06
2.800302033e-06
4.160140943e-06
1.146359894e-06
4.50316079e-06
0.0001224711738
0.0008206232739
0.001097564957
1.016469881e-06
1.432762007e-06
1.709630471e-06
1.911765303e-06
2.074271116e-06
2.211011771e-06
2.328884177e-06
2.432364061e-06
2.524775514e-06
2.608537613e-06
2.685286841e-06
2.75606166e-06
2.821495226e-06
2.882007784e-06
2.937873464e-06
2.989240341e-06
3.036107909e-06
3.078287548e-06
3.115456332e-06
3.147243014e-06
3.173411394e-06
3.194051285e-06
3.2095933e-06
3.220841155e-06
3.229014705e-06
3.235057695e-06
3.240999322e-06
3.244377726e-06
3.256782052e-06
3.24255309e-06
3.309288568e-06
3.155238773e-06
3.562205035e-06
2.655352122e-06
4.579567196e-06
6.536936572e-07
6.975624118e-06
1.683611305e-05
0.0008477460373
0.001157593527
1.023631588e-06
1.441628291e-06
1.722673941e-06
1.928832933e-06
2.095557823e-06
2.236361206e-06
2.357876965e-06
2.464636893e-06
2.560225394e-06
2.647278509e-06
2.727527661e-06
2.801974748e-06
2.871232834e-06
2.935606254e-06
2.995323415e-06
3.050505434e-06
3.101023292e-06
3.146502488e-06
3.18632292e-06
3.219781711e-06
3.246361255e-06
3.266101732e-06
3.279548464e-06
3.28778968e-06
3.292571498e-06
3.295200307e-06
3.298360045e-06
3.299380826e-06
3.310715245e-06
3.296577663e-06
3.357963761e-06
3.225498921e-06
3.574347518e-06
2.766125454e-06
4.678505084e-06
3.13939658e-07
7.675075955e-06
2.019541968e-05
0.0008771181954
0.001219708025
1.034130996e-06
1.452744646e-06
1.737923032e-06
1.94831681e-06
2.120085374e-06
2.265507327e-06
2.391014999e-06
2.501289802e-06
2.600318878e-06
2.691058148e-06
2.775391992e-06
2.854197419e-06
2.928365537e-06
2.99761427e-06
3.062222147e-06
3.122671515e-06
3.178567211e-06
3.229357484e-06
3.273697153e-06
3.310228179e-06
3.337805942e-06
3.356202301e-06
3.366172574e-06
3.36942019e-06
3.368745369e-06
3.36608962e-06
3.365249035e-06
3.362867074e-06
3.373674458e-06
3.358144438e-06
3.418963064e-06
3.299105559e-06
3.592230077e-06
3.003446492e-06
4.280063914e-06
1.103139403e-06
8.408313436e-06
3.260402733e-05
0.0009061473802
0.001283923739
1.051552198e-06
1.468852107e-06
1.758449327e-06
1.973753409e-06
2.153516842e-06
2.304720364e-06
2.434417954e-06
2.548069513e-06
2.650581801e-06
2.745492942e-06
2.83484198e-06
2.918892849e-06
2.999510076e-06
3.073630095e-06
3.141788167e-06
3.206617103e-06
3.267500824e-06
3.324640545e-06
3.375419743e-06
3.417824436e-06
3.449661108e-06
3.468976942e-06
3.475696363e-06
3.472069855e-06
3.462845801e-06
3.451526427e-06
3.444182865e-06
3.436099647e-06
3.448256613e-06
3.424623725e-06
3.502823271e-06
3.356819397e-06
3.697648844e-06
3.025286892e-06
4.481687218e-06
8.705975099e-07
9.63563329e-06
4.680487859e-05
0.0009345199146
0.001350236724
1.09012232e-06
1.510372703e-06
1.812153167e-06
2.042162443e-06
2.246949065e-06
2.413969658e-06
2.553896384e-06
2.676040358e-06
2.788625709e-06
2.896613681e-06
3.001459401e-06
3.10056194e-06
3.19623828e-06
3.275651553e-06
3.338895312e-06
3.39436195e-06
3.441326378e-06
3.483890237e-06
3.519534621e-06
3.55028059e-06
3.577842081e-06
3.597716509e-06
3.604810183e-06
3.597569117e-06
3.5802445e-06
3.557792223e-06
3.540067445e-06
3.523742981e-06
3.532957469e-06
3.507503935e-06
3.592063891e-06
3.436203565e-06
3.817933569e-06
3.052326735e-06
4.731201683e-06
5.721539678e-07
1.370381196e-05
5.990755264e-05
0.0009609226296
0.001418560652
1.202089793e-06
1.667556762e-06
2.026171704e-06
2.325606428e-06
2.624922054e-06
2.85746633e-06
3.04535255e-06
3.212031385e-06
3.377115185e-06
3.549008527e-06
3.724962594e-06
3.892579122e-06
4.047582691e-06
4.153714547e-06
4.207436648e-06
4.224110672e-06
4.199087699e-06
4.140760493e-06
4.048545566e-06
3.942327593e-06
3.852362188e-06
3.790182428e-06
3.752147165e-06
3.727439205e-06
3.705966977e-06
3.67995655e-06
3.656456498e-06
3.630301059e-06
3.63641809e-06
3.606399582e-06
3.69066477e-06
3.556780292e-06
3.912994154e-06
3.147081077e-06
5.001960074e-06
5.024328591e-07
1.205218175e-05
7.483103397e-05
0.0009876417317
0.00148907727
1.521579137e-06
2.18772164e-06
2.752575167e-06
3.298931329e-06
3.879680272e-06
4.321640927e-06
4.677294038e-06
5.008333665e-06
5.36285387e-06
5.754062188e-06
6.164409104e-06
6.557488046e-06
6.904750616e-06
7.135331139e-06
7.238887391e-06
7.226823527e-06
7.073316402e-06
6.770152106e-06
6.304089628e-06
5.720156298e-06
5.11948278e-06
4.59322628e-06
4.199987533e-06
3.955707119e-06
3.833164072e-06
3.779681113e-06
3.761822084e-06
3.743518536e-06
3.762360473e-06
3.720334132e-06
3.832247911e-06
3.67425438e-06
4.046655786e-06
3.33555925e-06
5.165991669e-06
8.042944985e-07
4.396939901e-07
0.0001250860605
0.001012612164
0.00156172181
2.266867101e-06
3.491808921e-06
4.598002189e-06
5.764030246e-06
6.957084677e-06
7.871553834e-06
8.634448333e-06
9.382647762e-06
1.020937235e-05
1.112357695e-05
1.207296124e-05
1.298160512e-05
1.378325514e-05
1.438830276e-05
1.478263095e-05
1.494237169e-05
1.477777956e-05
1.419679791e-05
1.311296223e-05
1.155898536e-05
9.725535179e-06
7.87691753e-06
6.272512146e-06
5.086918367e-06
4.352070465e-06
3.973083057e-06
3.831757616e-06
3.801157973e-06
3.855897046e-06
3.844527219e-06
4.006364041e-06
3.810507154e-06
4.282902918e-06
3.508524984e-06
5.037732631e-06
1.677332621e-06
9.131625029e-06
7.282196092e-05
0.001033454961
0.001636497401
3.649759356e-06
5.98753869e-06
8.153984066e-06
1.044680219e-05
1.261210097e-05
1.42969267e-05
1.578254255e-05
1.73040766e-05
1.898384454e-05
2.079538816e-05
2.263633153e-05
2.440300777e-05
2.602446967e-05
2.74508019e-05
2.866873523e-05
2.956979308e-05
2.992533476e-05
2.944038256e-05
2.783436919e-05
2.501935945e-05
2.122156497e-05
1.693611824e-05
1.278634244e-05
9.315331469e-06
6.793143932e-06
5.182537455e-06
4.30888779e-06
3.914376177e-06
3.86112829e-06
3.875726364e-06
4.146159523e-06
3.987485233e-06
4.616558868e-06
3.540995121e-06
5.59977852e-06
2.025286914e-06
1.024933464e-06
0.0001489868714
0.001052889726
0.001713137214
5.823717512e-06
9.833479497e-06
1.359600804e-05
1.739759055e-05
2.067449575e-05
2.327366375e-05
2.571065029e-05
2.827453322e-05
3.104120568e-05
3.391490051e-05
3.677679426e-05
3.95755968e-05
4.233238885e-05
4.509523836e-05
4.783128995e-05
5.02995989e-05
5.206841235e-05
5.255790086e-05
5.1190875e-05
4.760816024e-05
4.189330702e-05
3.465945646e-05
2.692898752e-05
1.978990971e-05
1.396270795e-05
9.668589289e-06
6.818419097e-06
5.080690305e-06
4.238630881e-06
3.889881842e-06
4.106144815e-06
4.122372443e-06
4.84862336e-06
3.889661743e-06
6.0161675e-06
1.944340845e-06
9.597701871e-06
6.706024999e-05
0.001072785788
0.001791880804
9.022279655e-06
1.503457944e-05
2.069399832e-05
2.596373464e-05
3.007306249e-05
3.339816531e-05
3.667064242e-05
4.009767291e-05
4.361761208e-05
4.710128187e-05
5.053502211e-05
5.405110997e-05
5.782528143e-05
6.194760814e-05
6.629099492e-05
7.049510964e-05
7.405472167e-05
7.633612827e-05
7.662064663e-05
7.418371713e-05
6.857239963e-05
5.999963153e-05
4.951853014e-05
3.869003568e-05
2.88273439e-05
2.065968513e-05
1.438081297e-05
9.799257015e-06
6.814092429e-06
4.957693224e-06
4.337837344e-06
3.953355014e-06
5.091049672e-06
4.160354772e-06
6.155789338e-06
2.920729912e-06
2.256625852e-05
0.0001366405886
0.001095457977
0.00187255781
1.343655337e-05
2.169576267e-05
2.916244414e-05
3.533789979e-05
3.961084331e-05
4.310243146e-05
4.655213219e-05
4.994493511e-05
5.311282491e-05
5.605847584e-05
5.903775587e-05
6.239472921e-05
6.632673101e-05
7.074169809e-05
7.53149553e-05
7.97079419e-05
8.378419432e-05
8.747942079e-05
9.047494164e-05
9.188993774e-05
9.042347557e-05
8.512067238e-05
7.615126388e-05
6.482235986e-05
5.280867817e-05
4.144191843e-05
3.131626681e-05
2.265009336e-05
1.567528886e-05
1.018333777e-05
6.562749361e-06
4.600654807e-06
4.748168446e-06