/*--------------------------------*- C++ -*----------------------------------*\
| =========                 |                                                 |
| \\      /  F ield         | OpenFOAM: The Open Source CFD Toolbox           |
|  \\    /   O peration     | Version:  v1912                                 |
|   \\  /    A nd           | Website:  www.openfoam.com                      |
|    \\/     M anipulation  |                                                 |
\*---------------------------------------------------------------------------*/
FoamFile
{
    version     2.0;
    format      ascii;
    class       volScalarField;
    location    "1";
    object      k.liquid_0;
}
// * * * * * * * * * * * * * * * * * * * * * * * * * * * * * * * * * * * * * //

dimensions      [0 2 -2 0 0 0 0];


internalField   nonuniform List<scalar> 
4800
(
4.417747624e-07
6.285214703e-07
7.431369964e-07
8.324343714e-07
9.142724643e-07
9.968727733e-07
1.085265812e-06
1.183054796e-06
1.293081272e-06
1.417715988e-06
1.558987396e-06
1.7186297e-06
1.89808742e-06
2.098497929e-06
2.320666495e-06
2.565044683e-06
2.831720667e-06
3.120428066e-06
3.430578033e-06
3.761317385e-06
4.111613648e-06
4.480366217e-06
4.866541507e-06
5.269329167e-06
5.68831386e-06
6.123666214e-06
6.576365889e-06
7.048415649e-06
7.543098268e-06
8.065187408e-06
8.621511793e-06
9.222915516e-06
9.868020003e-06
1.064835621e-05
1.128265105e-05
1.276398214e-05
1.265991827e-05
1.709915061e-05
7.705383456e-06
3.501813492e-05
1.051464165e-06
1.484183482e-06
1.740173025e-06
1.92120319e-06
2.061908007e-06
2.176629542e-06
2.272994195e-06
2.355620238e-06
2.427545383e-06
2.490894549e-06
2.54723065e-06
2.597754165e-06
2.643423296e-06
2.685029613e-06
2.723247174e-06
2.758665015e-06
2.791808755e-06
2.823154871e-06
2.853139975e-06
2.882166717e-06
2.910607517e-06
2.938807083e-06
2.967084451e-06
2.995735228e-06
3.025034462e-06
3.055236244e-06
3.086580538e-06
3.119290887e-06
3.153664114e-06
3.189538506e-06
3.228924476e-06
3.264418154e-06
3.324430357e-06
3.314784315e-06
3.51368626e-06
3.18141739e-06
4.007781853e-06
2.723351848e-06
8.627333256e-06
7.17276416e-05
9.896806556e-07
1.394136783e-06
1.633907253e-06
1.803938956e-06
1.936680876e-06
2.045551177e-06
2.137664829e-06
2.217313702e-06
2.287299475e-06
2.349559286e-06
2.40549298e-06
2.456148683e-06
2.502334686e-06
2.544690207e-06
2.583731889e-06
2.619885328e-06
2.65350699e-06
2.68489977e-06
2.7143242e-06
2.742006657e-06
2.768145409e-06
2.792915152e-06
2.816470454e-06
2.838948418e-06
2.860470801e-06
2.881145376e-06
2.901068962e-06
2.920322593e-06
2.939020536e-06
2.957015373e-06
2.97557963e-06
2.988773758e-06
3.023779419e-06
2.971027883e-06
3.222816416e-06
2.561332184e-06
4.205873346e-06
8.153720053e-07
3.332600717e-06
9.354772895e-05
9.95674752e-07
1.403600278e-06
1.645523377e-06
1.817027028e-06
1.950839871e-06
2.0604992e-06
2.153186902e-06
2.233237778e-06
2.303484065e-06
2.365885998e-06
2.42186193e-06
2.47247551e-06
2.518548483e-06
2.560731955e-06
2.599553174e-06
2.635447177e-06
2.668778749e-06
2.699857962e-06
2.728951364e-06
2.756290165e-06
2.782076306e-06
2.806487063e-06
2.829678614e-06
2.851788909e-06
2.87294006e-06
2.893240542e-06
2.91278758e-06
2.931669955e-06
2.949971639e-06
2.967749343e-06
2.985315107e-06
3.000997094e-06
3.025963714e-06
3.003000476e-06
3.175280258e-06
2.722192826e-06
3.824838243e-06
1.547332003e-06
1.869034429e-05
0.000112339923
9.948689445e-07
1.402227785e-06
1.643907459e-06
1.815254282e-06
1.948970365e-06
2.058575687e-06
2.151240914e-06
2.231293287e-06
2.301559869e-06
2.363996779e-06
2.420018984e-06
2.470687248e-06
2.516820778e-06
2.559068404e-06
2.597955308e-06
2.633914651e-06
2.667309511e-06
2.698448414e-06
2.727596509e-06
2.754983732e-06
2.78081086e-06
2.805254071e-06
2.828468465e-06
2.850590882e-06
2.871742231e-06
2.892029724e-06
2.911548655e-06
2.930387648e-06
2.948615837e-06
2.96634638e-06
2.983599655e-06
2.999927972e-06
3.021381815e-06
3.0108189e-06
3.140923756e-06
2.784319558e-06
3.677369791e-06
2.51838537e-06
1.749504085e-05
0.0001301931047
9.947886319e-07
1.402114226e-06
1.643908786e-06
1.815346869e-06
1.949146543e-06
2.058829595e-06
2.151566268e-06
2.231683449e-06
2.302007999e-06
2.364495846e-06
2.420561742e-06
2.471266237e-06
2.517428324e-06
2.559696627e-06
2.598596138e-06
2.634559851e-06
2.667950711e-06
2.699077145e-06
2.728204242e-06
2.755561913e-06
2.781350924e-06
2.805747452e-06
2.828906576e-06
2.850965081e-06
2.872043788e-06
2.892249703e-06
2.911677558e-06
2.930416062e-06
2.948525491e-06
2.966166562e-06
2.983063614e-06
3.000274844e-06
3.016940702e-06
3.023563406e-06
3.096993961e-06
2.869889812e-06
3.839675649e-06
4.513654108e-07
2.566413838e-06
0.0001478654784
9.946215858e-07
1.401830336e-06
1.643712919e-06
1.815226735e-06
1.949102794e-06
2.058862495e-06
2.151674034e-06
2.231862841e-06
2.302254695e-06
2.364804621e-06
2.420926564e-06
2.47168034e-06
2.51788426e-06
2.56018632e-06
2.599110944e-06
2.635090618e-06
2.668487854e-06
2.699610722e-06
2.728724032e-06
2.756057492e-06
2.781811736e-06
2.806162862e-06
2.829265916e-06
2.851257671e-06
2.872258971e-06
2.892376789e-06
2.91170548e-06
2.930334768e-06
2.948310329e-06
2.965894279e-06
2.98216175e-06
3.001613267e-06
3.007962739e-06
3.048990423e-06
3.026122459e-06
3.030555716e-06
3.280015376e-06
3.76597709e-06
2.222893156e-05
0.0001659996476
9.944626055e-07
1.401557259e-06
1.643558861e-06
1.815173328e-06
1.949147717e-06
2.059003714e-06
2.151907605e-06
2.232183487e-06
2.302656115e-06
2.365279645e-06
2.421467241e-06
2.472277988e-06
2.518529519e-06
2.560869203e-06
2.599820894e-06
2.635816583e-06
2.669218366e-06
2.700333993e-06
2.729428052e-06
2.756730127e-06
2.782440831e-06
2.806736334e-06
2.829771839e-06
2.851684346e-06
2.872594984e-06
2.892611166e-06
2.911826717e-06
2.930337094e-06
2.948149099e-06
2.965769535e-06
2.980871724e-06
3.005179584e-06
2.989150941e-06
3.115792462e-06
2.806202535e-06
3.618492371e-06
1.975452391e-06
3.901806288e-06
5.799910503e-05
0.0001867225633
9.943012485e-07
1.401272516e-06
1.643417503e-06
1.81515326e-06
1.949245316e-06
2.059215901e-06
2.152229215e-06
2.232607952e-06
2.303175772e-06
2.365885887e-06
2.422150601e-06
2.473028195e-06
2.519335549e-06
2.561719335e-06
2.600702777e-06
2.636717325e-06
2.670124632e-06
2.701232125e-06
2.730304195e-06
2.757570371e-06
2.783231346e-06
2.807463513e-06
2.830422436e-06
2.852245599e-06
2.873054686e-06
2.892958063e-06
2.912048747e-06
2.930434037e-06
2.94805058e-06
2.965808536e-06
2.979368223e-06
3.009228759e-06
2.97289608e-06
3.160106652e-06
2.683607757e-06
3.945660987e-06
1.166160579e-06
1.095779084e-05
7.908578731e-05
0.0002082050378
9.941404823e-07
1.400981848e-06
1.643298134e-06
1.815178721e-06
1.949410263e-06
2.059515918e-06
2.152657655e-06
2.233156725e-06
2.303835646e-06
2.366646634e-06
2.423001078e-06
2.473956402e-06
2.520328671e-06
2.562763801e-06
2.601784341e-06
2.637821159e-06
2.671235453e-06
2.702334338e-06
2.731382055e-06
2.758608159e-06
2.78421355e-06
2.80837502e-06
2.831248716e-06
2.852972891e-06
2.873670121e-06
2.893450019e-06
2.912406019e-06
2.930652962e-06
2.948091366e-06
2.965830451e-06
2.978658495e-06
3.010206312e-06
2.969536929e-06
3.161493398e-06
2.681860542e-06
4.009841515e-06
6.373297103e-07
3.678540169e-06
0.0001038833729
0.0002306578403
9.939819607e-07
1.400687858e-06
1.643205808e-06
1.815256967e-06
1.949651843e-06
2.059915008e-06
2.153206029e-06
2.233844692e-06
2.304652318e-06
2.367580079e-06
2.424038401e-06
2.475083787e-06
2.521531428e-06
2.564026425e-06
2.603090593e-06
2.639154186e-06
2.672577928e-06
2.703668637e-06
2.732690453e-06
2.759873047e-06
2.785417669e-06
2.809501692e-06
2.832282086e-06
2.853898163e-06
2.874473784e-06
2.894119959e-06
2.912932587e-06
2.931023053e-06
2.948334039e-06
2.965723821e-06
2.979335581e-06
3.006858072e-06
2.978236431e-06
3.139649718e-06
2.747618778e-06
3.662949916e-06
1.481060711e-06
1.376492982e-05
0.0001285856233
0.0002540063958
9.938280123e-07
1.400394492e-06
1.643147612e-06
1.815397872e-06
1.949982421e-06
2.060427875e-06
2.153891255e-06
2.234690849e-06
2.30564674e-06
2.36870902e-06
2.425287103e-06
2.476436517e-06
2.522971514e-06
2.565536314e-06
2.604651944e-06
2.640747999e-06
2.674184713e-06
2.705268616e-06
2.734263803e-06
2.761400154e-06
2.786879411e-06
2.810879727e-06
2.833559135e-06
2.855058316e-06
2.875502793e-06
2.895005214e-06
2.913665208e-06
2.931585566e-06
2.948786039e-06
2.965689663e-06
2.980716914e-06
3.001243916e-06
2.997557601e-06
3.083532295e-06
2.858649904e-06
3.548838339e-06
1.836855167e-06
1.128468745e-06
0.0001535692542
0.0002786470999
9.936814365e-07
1.400106474e-06
1.643131864e-06
1.815612966e-06
1.950416389e-06
2.061071586e-06
2.154732953e-06
2.235717195e-06
2.306843159e-06
2.370059829e-06
2.426775569e-06
2.47804487e-06
2.52468098e-06
2.567327168e-06
2.606503609e-06
2.642639185e-06
2.676093614e-06
2.707173147e-06
2.736141876e-06
2.763229992e-06
2.788639875e-06
2.81255065e-06
2.83512167e-06
2.856495284e-06
2.876799009e-06
2.896147578e-06
2.914644457e-06
2.932386663e-06
2.949452499e-06
2.965963483e-06
2.981813263e-06
2.99825901e-06
3.007253117e-06
3.058150633e-06
2.919836984e-06
3.356567637e-06
1.966899745e-06
9.186737084e-06
0.0001802390788
0.0003045276091
9.935456134e-07
1.39982952e-06
1.643168431e-06
1.815915821e-06
1.950970638e-06
2.061866094e-06
2.155753997e-06
2.236949328e-06
2.308269749e-06
2.371663127e-06
2.428536731e-06
2.479943963e-06
2.526696992e-06
2.569438059e-06
2.608686405e-06
2.644870139e-06
2.678348419e-06
2.709427212e-06
2.73837065e-06
2.765409323e-06
2.790746394e-06
2.814562162e-06
2.837017562e-06
2.858256878e-06
2.878409946e-06
2.897594081e-06
2.915916604e-06
2.933471939e-06
2.95037914e-06
2.966556048e-06
2.982942113e-06
2.996145656e-06
3.016354977e-06
3.032038315e-06
2.961105514e-06
3.548255858e-06
3.523832953e-06
1.818163581e-05
0.000207245146
0.0003316401959
9.934245825e-07
1.399570465e-06
1.643268899e-06
1.816322273e-06
1.951664838e-06
2.062834581e-06
2.156980875e-06
2.238416842e-06
2.309959056e-06
2.373554264e-06
2.430608603e-06
2.482174326e-06
2.529062448e-06
2.571914089e-06
2.611247462e-06
2.647489815e-06
2.680999686e-06
2.712082734e-06
2.741003152e-06
2.767992015e-06
2.793253413e-06
2.81696903e-06
2.839301632e-06
2.860397705e-06
2.880389753e-06
2.899398037e-06
2.917534571e-06
2.934889151e-06
2.951634758e-06
2.967419627e-06
2.984556707e-06
2.993484478e-06
3.029155039e-06
2.993639561e-06
3.061023328e-06
3.342294285e-06
4.459335965e-07
2.850468136e-05
0.0002346891705
0.00036019028
9.933231443e-07
1.399337425e-06
1.643446825e-06
1.816850739e-06
1.952521782e-06
2.064003849e-06
2.158444153e-06
2.240153847e-06
2.311948553e-06
2.375773927e-06
2.43303493e-06
2.484782608e-06
2.531826738e-06
2.574807208e-06
2.614241085e-06
2.65055464e-06
2.684105702e-06
2.715199567e-06
2.744100495e-06
2.771040112e-06
2.796223571e-06
2.819834158e-06
2.842036711e-06
2.862980256e-06
2.882800334e-06
2.901620436e-06
2.919557902e-06
2.936697443e-06
2.953268602e-06
2.968653397e-06
2.986457975e-06
2.991543126e-06
3.040634574e-06
2.961207446e-06
3.148103647e-06
2.993693288e-06
3.619363915e-06
2.885720496e-05
0.0002621002207
0.0003904804289
9.932469758e-07
1.399139998e-06
1.643718022e-06
1.817522583e-06
1.953567782e-06
2.065404751e-06
2.160179004e-06
2.242199559e-06
2.314281286e-06
2.378368822e-06
2.435865927e-06
2.487822377e-06
2.535046606e-06
2.578177144e-06
2.617729753e-06
2.654129579e-06
2.687733606e-06
2.718846683e-06
2.747733102e-06
2.774625087e-06
2.799728987e-06
2.823229885e-06
2.84529498e-06
2.866076225e-06
2.885712634e-06
2.904330948e-06
2.922056175e-06
2.938955387e-06
2.955389929e-06
2.970096706e-06
2.989647935e-06
2.987023866e-06
3.060606474e-06
2.911797708e-06
3.259022461e-06
2.782129802e-06
4.254954802e-06
7.528533756e-06
0.0002919024421
0.0004223879735
9.932027696e-07
1.398989496e-06
1.644100876e-06
1.818362521e-06
1.954833194e-06
2.067072755e-06
2.162225748e-06
2.244598973e-06
2.31700663e-06
2.381392492e-06
2.439159151e-06
2.491355047e-06
2.538787157e-06
2.582092483e-06
2.621785286e-06
2.658289377e-06
2.691960717e-06
2.72310356e-06
2.751982156e-06
2.778829345e-06
2.80385279e-06
2.827239571e-06
2.849159594e-06
2.869768131e-06
2.889208107e-06
2.907609826e-06
2.925107077e-06
2.941744368e-06
2.958046323e-06
2.971941897e-06
2.993708069e-06
2.981737783e-06
3.083170806e-06
2.865340818e-06
3.33953649e-06
2.674690871e-06
5.037741783e-06
1.707481876e-05
0.0003221936881
0.0004559051878
9.931983984e-07
1.398899208e-06
1.644616732e-06
1.819399083e-06
1.956352975e-06
2.069048615e-06
2.164630502e-06
2.247403632e-06
2.320181154e-06
2.384906254e-06
2.442980506e-06
2.495450975e-06
2.543123034e-06
2.586631948e-06
2.626490213e-06
2.663120035e-06
2.696876089e-06
2.728061829e-06
2.756941318e-06
2.783747996e-06
2.808690927e-06
2.831959437e-06
2.853726513e-06
2.874151162e-06
2.893380642e-06
2.911549515e-06
2.928799547e-06
2.945162265e-06
2.961265241e-06
2.974577993e-06
2.997312017e-06
2.981198003e-06
3.091337075e-06
2.86214833e-06
3.332167711e-06
2.723377526e-06
6.204251351e-06
2.77095392e-05
0.0003527215325
0.0004910423461
9.932431109e-07
1.398884715e-06
1.64529032e-06
1.820665141e-06
1.958167245e-06
2.071379205e-06
2.167446156e-06
2.250672412e-06
2.323869465e-06
2.388980215e-06
2.447405421e-06
2.500190751e-06
2.548139823e-06
2.591885908e-06
2.631939408e-06
2.668720544e-06
2.702582367e-06
2.733827222e-06
2.762718762e-06
2.789490953e-06
2.81435433e-06
2.837500722e-06
2.85910661e-06
2.879335239e-06
2.898338757e-06
2.9162565e-06
2.933238754e-06
2.949305795e-06
2.965177911e-06
2.977914905e-06
3.001579321e-06
2.98022259e-06
3.109066151e-06
2.814882939e-06
3.450827864e-06
2.84178086e-06
7.841123279e-06
4.002031974e-05
0.0003833081195
0.0005278484312
9.933477441e-07
1.398964233e-06
1.646150254e-06
1.822198501e-06
1.960321982e-06
2.074118315e-06
2.17073341e-06
2.254472316e-06
2.32814511e-06
2.393694346e-06
2.45252007e-06
2.505666587e-06
2.553935617e-06
2.597958123e-06
2.638241983e-06
2.67520494e-06
2.709197963e-06
2.740521872e-06
2.769439565e-06
2.7961854e-06
2.820971426e-06
2.84399221e-06
2.8654282e-06
2.885447515e-06
2.904207919e-06
2.921854141e-06
2.938545703e-06
2.954292591e-06
2.969898071e-06
2.982112871e-06
3.006105961e-06
2.982712112e-06
3.115401731e-06
2.807090287e-06
3.515127048e-06
2.541838618e-06
8.574882397e-06
5.523135154e-05
0.0004135392887
0.000566565501
9.935249567e-07
1.399159076e-06
1.647229589e-06
1.824042615e-06
1.962869876e-06
2.077327222e-06
2.174561597e-06
2.258879777e-06
2.333091846e-06
2.399139635e-06
2.458422583e-06
2.511983685e-06
2.560622586e-06
2.604967543e-06
2.645523358e-06
2.682704621e-06
2.716859604e-06
2.748287037e-06
2.777248572e-06
2.803978741e-06
2.828691111e-06
2.851583209e-06
2.872840009e-06
2.89263529e-06
2.91113335e-06
2.92848526e-06
2.944860228e-06
2.960260754e-06
2.975559616e-06
2.987268405e-06
3.011363988e-06
2.986712482e-06
3.118502468e-06
2.827897934e-06
3.434070275e-06
2.754171268e-06
2.929900356e-06
5.085648139e-07
0.0004433857852
0.0006075079341
9.937895672e-07
1.399494326e-06
1.64856662e-06
1.826247436e-06
1.965871251e-06
2.081075713e-06
2.179009906e-06
2.263982432e-06
2.338805177e-06
2.405419557e-06
2.465224561e-06
2.519261871e-06
2.56832876e-06
2.613050302e-06
2.653927528e-06
2.691370987e-06
2.725725351e-06
2.757286473e-06
2.78631403e-06
2.813042344e-06
2.837686498e-06
2.860447237e-06
2.881514726e-06
2.901069411e-06
2.919283353e-06
2.936314996e-06
2.952345274e-06
2.967365918e-06
2.982332409e-06
2.993489708e-06
3.017629857e-06
2.991777796e-06
3.124109302e-06
2.830359636e-06
3.471565665e-06
2.619940707e-06
3.326994576e-06
1.278428605e-05
0.0004758258481
0.0006504571737
9.941591809e-07
1.399999542e-06
1.650205928e-06
1.828870696e-06
1.969395512e-06
2.085443829e-06
2.184168814e-06
2.269880789e-06
2.345394501e-06
2.412652514e-06
2.473053672e-06
2.527638296e-06
2.57720092e-06
2.622362795e-06
2.663620336e-06
2.701378996e-06
2.735978529e-06
2.76771078e-06
2.796832397e-06
2.823576652e-06
2.848160078e-06
2.870787038e-06
2.89165377e-06
2.910948711e-06
2.928853404e-06
2.945534768e-06
2.961190109e-06
2.975784419e-06
2.990442701e-06
3.000724994e-06
3.026128328e-06
2.994090763e-06
3.143439345e-06
2.804032797e-06
3.540464507e-06
2.478471187e-06
5.105996604e-06
2.584575068e-05
0.0005083679486
0.000695460548
9.946551262e-07
1.400709066e-06
1.652199331e-06
1.831979193e-06
1.973522813e-06
2.090524004e-06
2.190141931e-06
2.276689748e-06
2.352985687e-06
2.420974971e-06
2.482057088e-06
2.537271285e-06
2.587408958e-06
2.633086502e-06
2.674794596e-06
2.712932466e-06
2.747833277e-06
2.779783219e-06
2.809034529e-06
2.835817834e-06
2.86035063e-06
2.882841445e-06
2.903493834e-06
2.922506102e-06
2.940071673e-06
2.956367558e-06
2.971612894e-06
2.985733467e-06
3.000070862e-06
3.009387048e-06
3.035960234e-06
2.998719394e-06
3.159673833e-06
2.791221096e-06
3.608295275e-06
2.235470422e-06
5.524805879e-07
4.145400253e-05
0.0005406383339
0.0007425450368
9.953032771e-07
1.401662277e-06
1.654606617e-06
1.8356498e-06
1.978345187e-06
2.096422385e-06
2.197048366e-06
2.284540821e-06
2.361722734e-06
2.430543434e-06
2.492404296e-06
2.548343871e-06
2.599149912e-06
2.645432715e-06
2.687675727e-06
2.726270448e-06
2.761541504e-06
2.793767016e-06
2.823192909e-06
2.850045121e-06
2.874540869e-06
2.896893223e-06
2.917314692e-06
2.936016088e-06
2.953206096e-06
2.969073833e-06
2.983869898e-06
2.997451634e-06
3.011514898e-06
3.019471218e-06
3.048416198e-06
3.001930535e-06
3.185944698e-06
2.760626161e-06
3.691416513e-06
2.077566197e-06
1.377540602e-06
5.852739093e-05
0.0005723437687
0.0007915533795
9.96134361e-07
1.402905642e-06
1.657497062e-06
1.839970877e-06
1.983968133e-06
2.103260456e-06
2.205024454e-06
2.293584038e-06
2.371769278e-06
2.441535859e-06
2.50428858e-06
2.561065513e-06
2.612650107e-06
2.65964541e-06
2.702525782e-06
2.741672544e-06
2.777399203e-06
2.809972548e-06
2.839629173e-06
2.866588298e-06
2.891064991e-06
2.913276673e-06
2.933446732e-06
2.951802086e-06
2.968571332e-06
2.983958725e-06
2.998257266e-06
3.011231793e-06
3.025037952e-06
3.031372709e-06
3.063296416e-06
3.005803931e-06
3.216737131e-06
2.726608186e-06
3.791913832e-06
1.836561135e-06
3.270188122e-06
8.020449708e-05
0.0006028166067
0.0008425347754
9.971844324e-07
1.404497146e-06
1.660952675e-06
1.845045128e-06
1.990513708e-06
2.11117843e-06
2.214226935e-06
2.30399129e-06
2.38331208e-06
2.454154622e-06
2.517929462e-06
2.575674722e-06
2.628168576e-06
2.676005217e-06
2.719647598e-06
2.759463615e-06
2.795752113e-06
2.828764529e-06
2.858723431e-06
2.885838062e-06
2.910318892e-06
2.932387082e-06
2.952279151e-06
2.970243071e-06
2.986534402e-06
3.00137648e-06
3.015120381e-06
3.027403853e-06
3.040983868e-06
3.045392435e-06
3.080973353e-06
3.01059132e-06
3.252863129e-06
2.688064152e-06
3.90142442e-06
1.659696904e-06
6.025185064e-06
7.026549214e-05
0.0006317756579
0.0008960419071
9.984971718e-07
1.406509279e-06
1.665071083e-06
1.850992546e-06
1.998124253e-06
2.120339998e-06
2.224838507e-06
2.315962135e-06
2.396566951e-06
2.468633134e-06
2.533580242e-06
2.592447006e-06
2.646005184e-06
2.694837971e-06
2.73939411e-06
2.780024453e-06
2.817008336e-06
2.850576041e-06
2.880929653e-06
2.908262545e-06
2.932776857e-06
2.954696654e-06
2.974274286e-06
2.991785272e-06
3.007523049e-06
3.021736368e-06
3.03485808e-06
3.046342571e-06
3.059771264e-06
3.061795637e-06
3.102123518e-06
3.016171133e-06
3.294941791e-06
2.647286193e-06
4.021738563e-06
1.478618113e-06
6.578661267e-06
1.378947822e-05
0.0006642482289
0.0009519388704
1.000128987e-06
1.409028158e-06
1.669965899e-06
1.857951479e-06
2.006964664e-06
2.13093603e-06
2.23707269e-06
2.329729593e-06
2.41178562e-06
2.485243752e-06
2.551537028e-06
2.611705549e-06
2.666513216e-06
2.716529497e-06
2.762185457e-06
2.803810499e-06
2.84165836e-06
2.875930131e-06
2.906798261e-06
2.93443131e-06
2.959016602e-06
2.98077938e-06
2.999991481e-06
3.01696438e-06
3.032044312e-06
3.045516559e-06
3.057927235e-06
3.068491519e-06
3.081818724e-06
3.081125218e-06
3.12675183e-06
3.024574346e-06
3.339022196e-06
2.614682192e-06
4.132010263e-06
1.336564255e-06
7.726737118e-06
3.024519253e-05
0.0006968968262
0.001010147309
1.002156708e-06
1.412155806e-06
1.675768463e-06
1.866080377e-06
2.017225143e-06
2.143188331e-06
2.251177902e-06
2.345563954e-06
2.429259367e-06
2.50430186e-06
2.572144167e-06
2.633828843e-06
2.69010956e-06
2.741538194e-06
2.788524003e-06
2.831369978e-06
2.870296931e-06
2.905465872e-06
2.93700573e-06
2.965046854e-06
2.989751671e-06
3.011342446e-06
3.030115339e-06
3.046430393e-06
3.06070737e-06
3.073284086e-06
3.084861269e-06
3.094361621e-06
3.107619953e-06
3.103918147e-06
3.155378838e-06
3.035845111e-06
3.388859062e-06
2.577868578e-06
4.274262026e-06
1.166968401e-06
9.553227264e-06
4.811520067e-05
0.0007289496331
0.001070772276
1.004688362e-06
1.416021705e-06
1.682634918e-06
1.875563359e-06
2.029127719e-06
2.157357069e-06
2.267444459e-06
2.363778293e-06
2.449322979e-06
2.526168685e-06
2.595796781e-06
2.659253494e-06
2.717278377e-06
2.770400604e-06
2.819003188e-06
2.863357493e-06
2.903642305e-06
2.939963713e-06
2.972386844e-06
3.000981871e-06
3.025870688e-06
3.047265131e-06
3.065491039e-06
3.080975702e-06
3.094243767e-06
3.10571135e-06
3.116277509e-06
3.124576204e-06
3.137597395e-06
3.131432515e-06
3.186086541e-06
3.059080765e-06
3.420589877e-06
2.598746645e-06
4.324112521e-06
1.231080651e-06
1.200750022e-05
6.80201796e-05
0.0007601190442
0.001133892671
1.00788126e-06
1.420796343e-06
1.69075381e-06
1.886617675e-06
2.042937683e-06
2.173756653e-06
2.286223366e-06
2.384748917e-06
2.472376736e-06
2.551275025e-06
2.622966231e-06
2.688500973e-06
2.748598165e-06
2.803758283e-06
2.85433396e-06
2.900560409e-06
2.942564607e-06
2.98037808e-06
3.013973343e-06
3.043325389e-06
3.068487816e-06
3.089649898e-06
3.107172097e-06
3.121574971e-06
3.133536906e-06
3.143591332e-06
3.152898829e-06
3.159822596e-06
3.172331698e-06
3.164843721e-06
3.217259496e-06
3.104187489e-06
3.40511114e-06
2.754038932e-06
4.168267864e-06
1.296422691e-06
1.355900489e-06
9.289257091e-05
0.0007894453453
0.001199220105
1.0119814e-06
1.426706968e-06
1.70035753e-06
1.899512045e-06
2.058994556e-06
2.192802526e-06
2.307988838e-06
2.40899372e-06
2.498981798e-06
2.580234803e-06
2.65433118e-06
2.72232378e-06
2.784898266e-06
2.842520295e-06
2.895507519e-06
2.944055009e-06
2.988230263e-06
3.027966826e-06
3.063107982e-06
3.09348368e-06
3.119032129e-06
3.139901023e-06
3.156487297e-06
3.169438698e-06
3.179662319e-06
3.18786231e-06
3.195585127e-06
3.200761799e-06
3.213137763e-06
3.20239335e-06
3.260084303e-06
3.135599759e-06
3.44956547e-06
2.80304034e-06
4.16350581e-06
1.161213964e-06
4.100687582e-06
0.0001182583853
0.0008164851512
0.00126672964
1.017414461e-06
1.434070128e-06
1.711744619e-06
1.914595796e-06
2.077757043e-06
2.215077018e-06
2.333429275e-06
2.437292358e-06
2.530014249e-06
2.614037767e-06
2.691013803e-06
2.761986306e-06
2.82758996e-06
2.888243907e-06
2.944221317e-06
2.995668558e-06
3.042581171e-06
3.084763265e-06
3.121882159e-06
3.153557195e-06
3.179547809e-06
3.199945876e-06
3.215193247e-06
3.226110892e-06
3.233943681e-06
3.239647651e-06
3.245287358e-06
3.24834448e-06
3.260600062e-06
3.245917251e-06
3.312997063e-06
3.157795008e-06
3.566085469e-06
2.657919263e-06
4.58123892e-06
6.650704724e-07
6.932839749e-06
1.769027725e-06
0.0008422346142
0.001336866579
1.024961154e-06
1.443291919e-06
1.725216863e-06
1.932172129e-06
2.099653018e-06
2.241121241e-06
2.363178084e-06
2.470359672e-06
2.566285179e-06
2.653623927e-06
2.73412746e-06
2.808801357e-06
2.878268151e-06
2.942820212e-06
3.00268488e-06
3.057986631e-06
3.108585664e-06
3.154094474e-06
3.193871562e-06
3.227196439e-06
3.253543255e-06
3.272957291e-06
3.286004697e-06
3.29380214e-06
3.298133711e-06
3.300322486e-06
3.30309346e-06
3.303716929e-06
3.314837526e-06
3.300214414e-06
3.36183455e-06
3.228192545e-06
3.578920927e-06
2.766337283e-06
4.685829586e-06
3.193230064e-07
7.605803903e-06
1.113264129e-05
0.0008711604337
0.00140949895
1.03613389e-06
1.454931603e-06
1.741044861e-06
1.952305663e-06
2.124994849e-06
2.27117356e-06
2.397257282e-06
2.507952616e-06
2.6073066e-06
2.698326232e-06
2.782924998e-06
2.861969587e-06
2.936395421e-06
3.005853264e-06
3.070620566e-06
3.131231815e-06
3.187275301e-06
3.238187647e-06
3.282569468e-06
3.319018485e-06
3.346361061e-06
3.364356656e-06
3.373789459e-06
3.376419061e-06
3.375120537e-06
3.371869429e-06
3.370516122e-06
3.36763115e-06
3.37814803e-06
3.362085089e-06
3.422967735e-06
3.3022632e-06
3.596082916e-06
3.005071402e-06
4.288479296e-06
1.098601063e-06
8.289778571e-06
2.535279141e-05
0.0008997891202
0.001484639251
1.055071182e-06
1.472464723e-06
1.763260742e-06
1.97975787e-06
2.161112726e-06
2.313401935e-06
2.443760967e-06
2.55781275e-06
2.660632769e-06
2.755856454e-06
2.845542819e-06
2.929863441e-06
3.010774655e-06
3.084948834e-06
3.152887531e-06
3.217457016e-06
3.278082036e-06
3.3350458e-06
3.385690152e-06
3.427962281e-06
3.459631097e-06
3.478621687e-06
3.484781784e-06
3.480391638e-06
3.470325547e-06
3.45817779e-06
3.450128665e-06
3.441370401e-06
3.453161548e-06
3.428857875e-06
3.507050998e-06
3.360247004e-06
3.701252082e-06
3.028221975e-06
4.486483558e-06
8.714168432e-07
9.440211846e-06
4.022367816e-05
0.0009277518732
0.00156229087
1.098202966e-06
1.520073627e-06
1.824926635e-06
2.05838186e-06
2.267849334e-06
2.437852111e-06
2.579417875e-06
2.702579193e-06
2.816149706e-06
2.925308309e-06
3.031401751e-06
3.131429112e-06
3.227677123e-06
3.306584392e-06
3.368028793e-06
3.420935851e-06
3.464789714e-06
3.504052022e-06
3.536462409e-06
3.564384627e-06
3.589986423e-06
3.608732641e-06
3.615117659e-06
3.607181032e-06
3.589015504e-06
3.565586265e-06
3.546925172e-06
3.529692559e-06
3.538368872e-06
3.51206286e-06
3.596649239e-06
3.439546536e-06
3.822013212e-06
3.054776268e-06
4.736565784e-06
5.586438017e-07
1.344636665e-05
5.357953307e-05
0.0009537122309
0.001642342891
1.223757876e-06
1.699036217e-06
2.068502505e-06
2.380516961e-06
2.694436716e-06
2.936737144e-06
3.130559162e-06
3.301597922e-06
3.47115537e-06
3.64804666e-06
3.828939939e-06
4.000316778e-06
4.15727119e-06
4.262298804e-06
4.311271293e-06
4.320104801e-06
4.284356248e-06
4.212830612e-06
4.105702588e-06
3.984190671e-06
3.880931676e-06
3.809201269e-06
3.765516349e-06
3.738052481e-06
3.715372731e-06
3.688576402e-06
3.66428065e-06
3.637122347e-06
3.642474652e-06
3.611482306e-06
3.695407039e-06
3.560218098e-06
3.917769268e-06
3.147790631e-06
5.007874141e-06
4.932827783e-07
1.187479736e-05
6.844992949e-05
0.0009799439174
0.001725028242
1.57464046e-06
2.274065673e-06
2.870654649e-06
3.452794051e-06
4.068974216e-06
4.53536367e-06
4.907383176e-06
5.251747417e-06
5.619842924e-06
6.025163654e-06
6.448548905e-06
6.8515546e-06
7.204234213e-06
7.43485371e-06
7.532173197e-06
7.507130071e-06
7.333043669e-06
7.000661476e-06
6.497060919e-06
5.869337774e-06
5.224184071e-06
4.659401159e-06
4.237880133e-06
3.976251704e-06
3.845175312e-06
3.788447871e-06
3.769689729e-06
3.750774221e-06
3.76912358e-06
3.726013423e-06
3.83711843e-06
3.678395163e-06
4.050509127e-06
3.335401183e-06
5.174492346e-06
8.368018251e-07
1.358587622e-05
0.0001191834046
0.001004825083
0.001810225026
2.371830222e-06
3.673281911e-06
4.849068051e-06
6.088497257e-06
7.343776607e-06
8.301610305e-06
9.096629688e-06
9.873383569e-06
1.07285225e-05
1.166993943e-05
1.264270289e-05
1.356917434e-05
1.438267277e-05
1.499499588e-05
1.539079826e-05
1.554289088e-05
1.535715273e-05
1.473606835e-05
1.359051711e-05
1.195443317e-05
1.002679548e-05
8.085301085e-06
6.402038346e-06
5.158618995e-06
4.38765026e-06
3.989831696e-06
3.840830805e-06
3.807825525e-06
3.862418384e-06
3.850334296e-06
4.01172447e-06
3.814861175e-06
4.285065237e-06
3.512431509e-06
5.042555471e-06
1.667669443e-06
8.83629266e-06
6.619298797e-05
0.001024683389
0.001898019783
3.819567241e-06
6.284277581e-06
8.565606679e-06
1.096702466e-05
1.320885178e-05
1.494703718e-05
1.647773439e-05
1.804248141e-05
1.976273943e-05
2.160862699e-05
2.347660291e-05
2.526554527e-05
2.690879995e-05
2.836066434e-05
2.960467056e-05
3.052414864e-05
3.088008902e-05
3.0365893e-05
2.869344119e-05
2.577306596e-05
2.183870429e-05
1.740228687e-05
1.310842311e-05
9.51703148e-06
6.906573427e-06
5.23931127e-06
4.334348662e-06
3.925213563e-06
3.867224759e-06
3.880416656e-06
4.151453848e-06
3.991047802e-06
4.619512906e-06
3.544882744e-06
5.593386624e-06
2.063636034e-06
5.188113078e-07
0.0001426428136
0.00104420498
0.001987963567
6.074987494e-06
1.024359501e-05
1.415407531e-05
1.807210722e-05
2.140662244e-05
2.404349904e-05
2.651885833e-05
2.911963487e-05
3.191273749e-05
3.479963965e-05
3.766835974e-05
4.0479428e-05
4.32635457e-05
4.607044565e-05
4.885853508e-05
5.137472042e-05
5.31756189e-05
5.367145692e-05
5.227682619e-05
4.862503179e-05
4.27956336e-05
3.540751197e-05
2.750268185e-05
2.019439351e-05
1.422313279e-05
9.820019005e-06
6.896420713e-06
5.115205359e-06
4.251375724e-06
3.894142132e-06
4.109513007e-06
4.125557874e-06
4.851587796e-06
3.889561047e-06
6.016544831e-06
1.945464602e-06
9.114748058e-06
6.006072584e-05
0.001062642485
0.002080492295
9.399015636e-06
1.558808513e-05
2.140882389e-05
2.676286325e-05
3.086506184e-05
3.417355535e-05
3.743536446e-05
4.083993334e-05
4.431331338e-05
4.773568726e-05
5.111985044e-05
5.461226256e-05
5.839221236e-05
6.25375816e-05
6.690706804e-05
7.113248795e-05
7.47139777e-05
7.703073002e-05
7.737285857e-05
7.500058267e-05
6.942630437e-05
6.083079534e-05
5.025951295e-05
3.92922962e-05
2.927293305e-05
2.095781949e-05
1.455765814e-05
9.88822444e-06
6.84735105e-06
4.964027211e-06
4.338973141e-06
3.95351865e-06
5.092946251e-06
4.156880011e-06
6.151663049e-06
2.863998691e-06
2.199035131e-05
0.0001297382049
0.001085230764
0.002175332267
1.396982084e-05
2.246516557e-05
3.008327962e-05
3.625638698e-05
4.042513561e-05
4.382286012e-05
4.717065235e-05
5.04281845e-05
5.343461764e-05
5.622899315e-05
5.91001836e-05
6.239680602e-05
6.629395775e-05
7.066848237e-05
7.518284715e-05
7.949857593e-05
8.35158179e-05
8.722356571e-05
9.033579994e-05
9.194993497e-05
9.071823415e-05
8.562641211e-05
7.679060204e-05
6.548988988e-05
5.340913123e-05
4.191424579e-05
3.163732537e-05
2.282628258e-05
1.573749685e-05
1.018074176e-05
6.541702936e-06
4.5882092e-06
4.757973691e-06
5.05225918e-06