/*--------------------------------*- C++ -*----------------------------------*\
| =========                 |                                                 |
| \\      /  F ield         | OpenFOAM: The Open Source CFD Toolbox           |
|  \\    /   O peration     | Version:  v1912                                 |
|   \\  /    A nd           | Website:  www.openfoam.com                      |
|    \\/     M anipulation  |                                                 |
\*---------------------------------------------------------------------------*/
FoamFile
{
    version     2.0;
    format      ascii;
    class       volScalarField;
    location    "1";
    object      nut.gas;
}
// * * * * * * * * * * * * * * * * * * * * * * * * * * * * * * * * * * * * * //

dimensions      [0 2 -1 0 0 0 0];


internalField   nonuniform List<scalar> 
4800
(
1.507093644e-08
3.113583187e-08
4.370782855e-08
5.47348345e-08
6.504274507e-08
7.508548617e-08
8.516860316e-08
9.551857769e-08
1.063107443e-07
1.176823159e-07
1.297390569e-07
1.425590726e-07
1.561952768e-07
1.706773699e-07
1.860137946e-07
2.021939244e-07
2.191906186e-07
2.369631951e-07
2.554608192e-07
2.746262719e-07
2.944000403e-07
3.147246592e-07
3.355492404e-07
3.568341253e-07
3.78555537e-07
4.00710415e-07
4.233218701e-07
4.464438918e-07
4.701669504e-07
4.946215394e-07
5.199917077e-07
5.465679695e-07
5.742638472e-07
6.05645471e-07
6.326593209e-07
6.825933541e-07
6.893133161e-07
8.120011967e-07
5.54983505e-07
1.131808719e-06
2.325075314e-08
4.784584307e-08
6.688381016e-08
8.315252793e-08
9.767775842e-08
1.109502766e-07
1.232567257e-07
1.347839113e-07
1.456625561e-07
1.559891023e-07
1.658378163e-07
1.7526804e-07
1.843287798e-07
1.93061737e-07
2.015033715e-07
2.096863296e-07
2.176404372e-07
2.253933824e-07
2.329711742e-07
2.403984372e-07
2.476985926e-07
2.548939656e-07
2.620058559e-07
2.690546049e-07
2.760596866e-07
2.83039647e-07
2.900123743e-07
2.969949537e-07
3.040079446e-07
3.110496506e-07
3.18224526e-07
3.251718592e-07
3.333151741e-07
3.379129426e-07
3.530578099e-07
3.407840712e-07
3.878405862e-07
3.24086022e-07
5.965856293e-07
1.599228452e-06
2.255731104e-08
4.63717096e-08
6.480947296e-08
8.057489086e-08
9.466513836e-08
1.075576499e-07
1.195311972e-07
1.307672489e-07
1.413923013e-07
1.514990089e-07
1.611578562e-07
1.704241089e-07
1.793421986e-07
1.879486145e-07
1.962738805e-07
2.043439459e-07
2.121811873e-07
2.198051422e-07
2.272330557e-07
2.344802903e-07
2.415606365e-07
2.484865499e-07
2.552693332e-07
2.619192793e-07
2.684457834e-07
2.748574174e-07
2.811620805e-07
2.873667698e-07
2.934800101e-07
2.994970743e-07
3.054854241e-07
3.111405268e-07
3.178860859e-07
3.199120158e-07
3.381287634e-07
3.057749578e-07
3.973098321e-07
1.774276119e-07
4.181017699e-07
1.817640652e-06
2.262551819e-08
4.652883057e-08
6.503944365e-08
8.086665905e-08
9.501055468e-08
1.079499275e-07
1.199643839e-07
1.312359743e-07
1.418916549e-07
1.520244688e-07
1.617052517e-07
1.709896032e-07
1.799222814e-07
1.885400986e-07
1.968738974e-07
2.049499384e-07
2.127908957e-07
2.204165842e-07
2.278444987e-07
2.350902179e-07
2.421677096e-07
2.490895668e-07
2.558671904e-07
2.625109381e-07
2.690302466e-07
2.754337445e-07
2.817293733e-07
2.879245323e-07
2.940262706e-07
3.000401693e-07
3.059847584e-07
3.11776121e-07
3.180008813e-07
3.216287694e-07
3.356258201e-07
3.152306258e-07
3.788852982e-07
2.447967064e-07
8.585386737e-07
1.986970456e-06
2.261636083e-08
4.650607619e-08
6.500750116e-08
8.082720145e-08
9.496501906e-08
1.078995291e-07
1.199101615e-07
1.311788279e-07
1.418323785e-07
1.51963759e-07
1.616437142e-07
1.709277564e-07
1.798605582e-07
1.884788471e-07
1.968133819e-07
2.0489034e-07
2.127323139e-07
2.203590389e-07
2.277879322e-07
2.35034497e-07
2.421126276e-07
2.490348437e-07
2.558124721e-07
2.624557924e-07
2.689741568e-07
2.753761041e-07
2.816694515e-07
2.878615566e-07
2.939586959e-07
2.99969241e-07
3.058968317e-07
3.1172058e-07
3.177600323e-07
3.220471835e-07
3.338051477e-07
3.188074786e-07
3.715094534e-07
3.120873362e-07
8.598800599e-07
2.134793178e-06
2.261544793e-08
4.650419301e-08
6.50075274e-08
8.082926272e-08
9.496931116e-08
1.079061832e-07
1.199192288e-07
1.311902963e-07
1.418461858e-07
1.519797988e-07
1.616618398e-07
1.709477831e-07
1.798822655e-07
1.885019805e-07
1.968376541e-07
2.049154333e-07
2.127578819e-07
2.203847089e-07
2.278133074e-07
2.350591587e-07
2.421361369e-07
2.490567426e-07
2.558322832e-07
2.624730182e-07
2.689882787e-07
2.75386577e-07
2.816756866e-07
2.878629522e-07
2.939541924e-07
2.999601488e-07
3.058693514e-07
3.117386011e-07
3.175264096e-07
3.227280611e-07
3.314625841e-07
3.236693479e-07
3.796194774e-07
1.329487477e-07
4.867813248e-07
2.275523612e-06
2.261354905e-08
4.649948486e-08
6.500365455e-08
8.082658818e-08
9.496824535e-08
1.079070453e-07
1.199222319e-07
1.31195569e-07
1.418537861e-07
1.519897219e-07
1.61674022e-07
1.709621051e-07
1.798985542e-07
1.885200107e-07
1.968571508e-07
2.049360737e-07
2.127792983e-07
2.204064916e-07
2.278350084e-07
2.35080295e-07
2.421561945e-07
2.490751792e-07
2.558485311e-07
2.624864864e-07
2.689983552e-07
2.753926272e-07
2.816770372e-07
2.878589593e-07
2.939434668e-07
2.999463809e-07
3.058231114e-07
3.118081267e-07
3.170536021e-07
3.240822301e-07
3.276480458e-07
3.326060143e-07
3.508642802e-07
3.817399129e-07
9.623553321e-07
2.408764631e-06
2.26117417e-08
4.649495558e-08
6.500060823e-08
8.082539913e-08
9.496933975e-08
1.07910746e-07
1.199287407e-07
1.31204993e-07
1.418661523e-07
1.520049864e-07
1.616920747e-07
1.709827731e-07
1.799216041e-07
1.885451511e-07
1.968840349e-07
2.049643016e-07
2.12808421e-07
2.204360149e-07
2.278643976e-07
2.351089798e-07
2.421835743e-07
2.491006285e-07
2.558714052e-07
2.625061255e-07
2.690140892e-07
2.754037848e-07
2.816829013e-07
2.878590735e-07
2.939354295e-07
2.99940073e-07
3.057569577e-07
3.119933065e-07
3.160606205e-07
3.276132437e-07
3.15517781e-07
3.634400573e-07
2.722917612e-07
3.906044445e-07
1.52494894e-06
2.552083836e-06
2.260990719e-08
4.649023234e-08
6.499781291e-08
8.082495235e-08
9.497171742e-08
1.079163061e-07
1.199377023e-07
1.312174671e-07
1.418821594e-07
1.520244653e-07
1.617148886e-07
1.710087132e-07
1.799503928e-07
1.885764442e-07
1.969174245e-07
2.0499932e-07
2.128445448e-07
2.204726704e-07
2.279009668e-07
2.351448074e-07
2.422179751e-07
2.491328954e-07
2.559008174e-07
2.625319568e-07
2.690356135e-07
2.754202983e-07
2.816936404e-07
2.878638351e-07
2.939305182e-07
2.999420452e-07
3.056798387e-07
3.122034255e-07
3.152000877e-07
3.299347493e-07
3.08548793e-07
3.795149124e-07
2.092090154e-07
6.516263897e-07
1.778064375e-06
2.696483378e-06
2.260807924e-08
4.648541032e-08
6.499545232e-08
8.08255192e-08
9.497573561e-08
1.079241673e-07
1.199496396e-07
1.312335927e-07
1.41902483e-07
1.520489049e-07
1.617432772e-07
1.710408028e-07
1.799858575e-07
1.886148836e-07
1.969583666e-07
2.050422259e-07
2.128888138e-07
2.205176467e-07
2.279459473e-07
2.351890506e-07
2.422607107e-07
2.491733354e-07
2.559381671e-07
2.62565426e-07
2.69064427e-07
2.754437153e-07
2.817109201e-07
2.878745876e-07
2.939325514e-07
2.999431534e-07
3.056434278e-07
3.122541313e-07
3.150219611e-07
3.300071338e-07
3.084483333e-07
3.82589076e-07
1.546618852e-07
3.853120054e-07
2.035168092e-06
2.840434883e-06
2.260627667e-08
4.648053269e-08
6.499362647e-08
8.082726125e-08
9.498162035e-08
1.079346234e-07
1.199649167e-07
1.312538057e-07
1.419276318e-07
1.520788873e-07
1.617778958e-07
1.710797701e-07
1.80028799e-07
1.886613413e-07
1.970078029e-07
2.050940286e-07
2.129423026e-07
2.205720812e-07
2.280005366e-07
2.352429643e-07
2.423130916e-07
2.492233125e-07
2.559848699e-07
2.62608e-07
2.691020482e-07
2.754756011e-07
2.817363858e-07
2.878927639e-07
2.939446488e-07
2.999377614e-07
3.056781642e-07
3.120804235e-07
3.15483065e-07
3.288651e-07
3.122069528e-07
3.656658912e-07
2.357695139e-07
7.318023252e-07
2.262431824e-06
2.983578541e-06
2.260452597e-08
4.647566488e-08
6.499247553e-08
8.083039819e-08
9.498967243e-08
1.079480591e-07
1.199840038e-07
1.312786621e-07
1.419582483e-07
1.521151411e-07
1.61819559e-07
1.711265146e-07
1.800802003e-07
1.88716882e-07
1.970668773e-07
2.051559485e-07
2.130063047e-07
2.206373367e-07
2.280661629e-07
2.353080382e-07
2.423766642e-07
2.492844259e-07
2.560425739e-07
2.626613717e-07
2.691502107e-07
2.755177292e-07
2.817718128e-07
2.879203883e-07
2.939671798e-07
2.999360342e-07
3.057490179e-07
3.11788942e-07
3.165047515e-07
3.259128164e-07
3.18452614e-07
3.599250467e-07
2.625661127e-07
2.635581818e-07
2.471793986e-06
3.127686694e-06
2.260285898e-08
4.647088533e-08
6.49921641e-08
8.083518656e-08
9.500024181e-08
1.079649201e-07
1.200074451e-07
1.313088054e-07
1.419950752e-07
1.521585085e-07
1.618692079e-07
1.711820757e-07
1.801411976e-07
1.887827367e-07
1.97136913e-07
2.052293971e-07
2.130823158e-07
2.207149883e-07
2.281444749e-07
2.353859886e-07
2.424532065e-07
2.493585082e-07
2.561131601e-07
2.627274629e-07
2.692108675e-07
2.755720833e-07
2.818191589e-07
2.879597248e-07
2.940003979e-07
2.999498803e-07
3.058052421e-07
3.116338576e-07
3.170162011e-07
3.24568692e-07
3.218426794e-07
3.500391843e-07
2.717019202e-07
6.051353106e-07
2.676741936e-06
3.272427586e-06
2.260131417e-08
4.646628893e-08
6.499288727e-08
8.084192819e-08
9.501373894e-08
1.079857275e-07
1.200358752e-07
1.313449834e-07
1.420389744e-07
1.522099658e-07
1.619279332e-07
1.712476573e-07
1.802131066e-07
1.888603306e-07
1.972194411e-07
2.053160076e-07
2.131720656e-07
2.208068558e-07
2.282373756e-07
2.354787935e-07
2.42544763e-07
2.494476618e-07
2.561987793e-07
2.628084621e-07
2.692862327e-07
2.75640893e-07
2.818806547e-07
2.880130068e-07
2.940465779e-07
2.99979842e-07
3.058631223e-07
3.115240091e-07
3.17495585e-07
3.231800406e-07
3.241091367e-07
3.598955078e-07
3.636724074e-07
8.437370311e-07
2.869510329e-06
3.41745276e-06
2.259993752e-08
4.646198916e-08
6.499487417e-08
8.085097501e-08
9.503064147e-08
1.080110857e-07
1.200700276e-07
1.313880597e-07
1.420909405e-07
1.52270639e-07
1.619969918e-07
1.713246467e-07
1.802974432e-07
1.88951306e-07
1.973162266e-07
2.054176626e-07
2.132775478e-07
2.209150362e-07
2.28347056e-07
2.35588728e-07
2.426536815e-07
2.495542964e-07
2.563018908e-07
2.629068651e-07
2.69378826e-07
2.757266825e-07
2.81958848e-07
2.880825704e-07
2.941091412e-07
3.000235016e-07
3.059458892e-07
3.113856304e-07
3.181685265e-07
3.211270896e-07
3.295320441e-07
3.492941441e-07
1.29417263e-07
1.053497523e-06
3.052981922e-06
3.563711389e-06
2.259878365e-08
4.645812084e-08
6.499839276e-08
8.086273609e-08
9.505150237e-08
1.080416931e-07
1.20110748e-07
1.314390282e-07
1.421521167e-07
1.523418214e-07
1.620778274e-07
1.714146375e-07
1.803959498e-07
1.890575508e-07
1.974292992e-07
2.055365275e-07
2.134010562e-07
2.210419419e-07
2.28476036e-07
2.357184067e-07
2.42782658e-07
2.496811745e-07
2.56425308e-07
2.630255229e-07
2.694915232e-07
2.758323351e-07
2.820566013e-07
2.881713058e-07
2.941905303e-07
3.000858658e-07
3.060433228e-07
3.112846432e-07
3.187708351e-07
3.193828595e-07
3.341864553e-07
3.305769842e-07
3.685754806e-07
1.056769364e-06
3.226792864e-06
3.712211777e-06
2.25979172e-08
4.645484344e-08
6.500375545e-08
8.087768562e-08
9.507695935e-08
1.080783525e-07
1.201590078e-07
1.314990297e-07
1.422238136e-07
1.524249949e-07
1.621720942e-07
1.715194558e-07
1.805106232e-07
1.891812307e-07
1.975609886e-07
2.056750896e-07
2.135452266e-07
2.211903463e-07
2.286272129e-07
2.358708353e-07
2.429347895e-07
2.49831466e-07
2.56572256e-07
2.631676997e-07
2.696276135e-07
2.759611376e-07
2.821772537e-07
2.882820679e-07
2.942961696e-07
3.001588053e-07
3.06206728e-07
3.110494289e-07
3.198160182e-07
3.167070919e-07
3.400227766e-07
3.186820893e-07
3.996230548e-07
5.711788922e-07
3.404766017e-06
3.862436706e-06
2.259741431e-08
4.645234484e-08
6.501132534e-08
8.089637162e-08
9.510774714e-08
1.081219852e-07
1.20215919e-07
1.315693705e-07
1.423075318e-07
1.525218547e-07
1.622816832e-07
1.716411901e-07
1.80643749e-07
1.893248259e-07
1.977139657e-07
2.05836203e-07
2.137130863e-07
2.213634365e-07
2.288039175e-07
2.360494696e-07
2.431136366e-07
2.500088143e-07
2.567464412e-07
2.633371435e-07
2.697908644e-07
2.761168684e-07
2.823245251e-07
2.884188211e-07
2.94428401e-07
3.002520286e-07
3.064145817e-07
3.107740777e-07
3.209927756e-07
3.141704484e-07
3.441972762e-07
3.124681523e-07
4.348362496e-07
8.286494554e-07
3.57674599e-06
4.014058826e-06
2.259736458e-08
4.645084585e-08
6.502152356e-08
8.091942592e-08
9.514471061e-08
1.081736484e-07
1.202827504e-07
1.316515437e-07
1.42404986e-07
1.526343368e-07
1.624087543e-07
1.717822261e-07
1.807979398e-07
1.894911746e-07
1.9789129e-07
2.060231415e-07
2.139081115e-07
2.215648759e-07
2.290099808e-07
2.362582863e-07
2.433232963e-07
2.502174128e-07
2.569521283e-07
2.635381658e-07
2.699856073e-07
2.763038685e-07
2.825026632e-07
2.885863237e-07
2.945885546e-07
3.0038516e-07
3.065989634e-07
3.107459469e-07
3.214175948e-07
3.139953794e-07
3.438173261e-07
3.152992126e-07
4.825669863e-07
1.046183549e-06
3.742137751e-06
4.166838055e-06
2.259787323e-08
4.645060523e-08
6.503483769e-08
8.094757555e-08
9.518881773e-08
1.08234555e-07
1.203609542e-07
1.317472505e-07
1.425181291e-07
1.527646482e-07
1.625557714e-07
1.719452874e-07
1.809761809e-07
1.89683524e-07
1.980964668e-07
2.062396598e-07
2.141342943e-07
2.217988762e-07
2.292498118e-07
2.365018647e-07
2.435684895e-07
2.504620929e-07
2.571942286e-07
2.637757293e-07
2.702168329e-07
2.76527123e-07
2.82716678e-07
2.887892574e-07
2.947831078e-07
3.005536004e-07
3.068171398e-07
3.106951065e-07
3.223379554e-07
3.113919334e-07
3.498855289e-07
3.220803682e-07
5.425085931e-07
1.252278358e-06
3.900869929e-06
4.320779083e-06
2.259906348e-08
4.645192542e-08
6.505183114e-08
8.09816553e-08
9.524117547e-08
1.083060939e-07
1.204521923e-07
1.318584208e-07
1.426491772e-07
1.529152977e-07
1.627255393e-07
1.721334789e-07
1.811818809e-07
1.899055873e-07
1.983335109e-07
2.064900659e-07
2.143962216e-07
2.220702828e-07
2.295284878e-07
2.367854829e-07
2.438546599e-07
2.507484264e-07
2.574784046e-07
2.640555535e-07
2.704902902e-07
2.767923873e-07
2.829723144e-07
2.890333021e-07
2.950176418e-07
3.007653709e-07
3.07048406e-07
3.108248486e-07
3.226662145e-07
3.109606098e-07
3.531301882e-07
3.046091526e-07
5.673379352e-07
1.467785575e-06
4.051716579e-06
4.476803621e-06
2.260107922e-08
4.645516014e-08
6.507315399e-08
8.102262276e-08
9.53030494e-08
1.083898427e-07
1.205583569e-07
1.319872485e-07
1.428006439e-07
1.530891284e-07
1.629212385e-07
1.723503273e-07
1.814189201e-07
1.901616021e-07
1.98607016e-07
2.067793009e-07
2.14699165e-07
2.223846742e-07
2.298518615e-07
2.371152296e-07
2.441880903e-07
2.510828441e-07
2.578111905e-07
2.643842358e-07
2.708126064e-07
2.77106298e-07
2.832761853e-07
2.893251025e-07
2.952987054e-07
3.010252431e-07
3.073168203e-07
3.110332157e-07
3.228267482e-07
3.121109847e-07
3.490349543e-07
3.170767757e-07
3.316199239e-07
5.603516018e-07
4.196581126e-06
4.635567903e-06
2.260408875e-08
4.646072532e-08
6.509955808e-08
8.107157623e-08
9.537588431e-08
1.084875921e-07
1.206816017e-07
1.321362395e-07
1.429753839e-07
1.532893584e-07
1.631464686e-07
1.725998294e-07
1.816917045e-07
1.904563927e-07
1.989222284e-07
2.071130276e-07
2.150491864e-07
2.227484828e-07
2.302266956e-07
2.37498147e-07
2.445760476e-07
2.514727816e-07
2.582001355e-07
2.647693908e-07
2.711914247e-07
2.77476493e-07
2.836359629e-07
2.896721109e-07
2.956345851e-07
3.013385386e-07
3.076363775e-07
3.112968523e-07
3.231168271e-07
3.122468024e-07
3.509352753e-07
3.092535495e-07
3.533928472e-07
7.539447483e-07
4.34725098e-06
4.796354767e-06
2.260829186e-08
4.646911071e-08
6.5131917e-08
8.112978178e-08
9.546133728e-08
1.086013886e-07
1.20824377e-07
1.323082549e-07
1.431766508e-07
1.535196515e-07
1.634053252e-07
1.728865343e-07
1.820052563e-07
1.907954689e-07
1.992851543e-07
2.074977508e-07
2.154532748e-07
2.231691514e-07
2.306608404e-07
2.379424241e-07
2.450269832e-07
2.519268772e-07
2.586539946e-07
2.652198304e-07
2.716355735e-07
2.779117775e-07
2.84060513e-07
2.900827238e-07
2.960362933e-07
3.017024875e-07
3.08069267e-07
3.11417162e-07
3.241149085e-07
3.107912141e-07
3.544006054e-07
3.007882721e-07
4.3780556e-07
1.027768824e-06
4.493478368e-06
4.95908563e-06
2.261393033e-08
4.648088457e-08
6.517124392e-08
8.119869991e-08
9.556131501e-08
1.087335855e-07
1.209894753e-07
1.325065488e-07
1.434081689e-07
1.53784207e-07
1.637025022e-07
1.732156618e-07
1.823653524e-07
1.911851837e-07
1.997027313e-07
2.079409988e-07
2.159195401e-07
2.23655341e-07
2.31163461e-07
2.384576477e-07
2.455507994e-07
2.524552424e-07
2.591829915e-07
2.657458123e-07
2.721552936e-07
2.784223464e-07
2.845599914e-07
2.905672412e-07
2.965124761e-07
3.02137629e-07
3.085693204e-07
3.116577824e-07
3.249507864e-07
3.100803946e-07
3.577794296e-07
2.856626269e-07
1.448707846e-07
1.284858297e-06
4.633974583e-06
5.12364901e-06
2.262129713e-08
4.649669748e-08
6.52187045e-08
8.128000522e-08
9.567799753e-08
1.088868725e-07
1.211800904e-07
1.327348239e-07
1.43674172e-07
1.540878093e-07
1.640433691e-07
1.735932047e-07
1.827786462e-07
1.916328812e-07
2.001830126e-07
2.084515372e-07
2.164574533e-07
2.242171883e-07
2.317452954e-07
2.390550698e-07
2.461591363e-07
2.530697633e-07
2.597991248e-07
2.66359341e-07
2.72762527e-07
2.790200255e-07
2.851462494e-07
2.911368804e-07
2.970774744e-07
3.026434229e-07
3.09201673e-07
3.118246052e-07
3.262988792e-07
3.083762964e-07
3.618768972e-07
2.753888781e-07
2.27969651e-07
1.518331565e-06
4.768081055e-06
5.289222544e-06
2.263073962e-08
4.651731569e-08
6.527564518e-08
8.137561461e-08
9.581387131e-08
1.090643105e-07
1.213998551e-07
1.329972758e-07
1.439794359e-07
1.544358566e-07
1.644339999e-07
1.740259644e-07
1.832527149e-07
1.921469694e-07
2.007352804e-07
2.090395326e-07
2.170780494e-07
2.248665454e-07
2.32418912e-07
2.397478673e-07
2.468656378e-07
2.537843755e-07
2.605164475e-07
2.670744446e-07
2.734711845e-07
2.797185582e-07
2.858328696e-07
2.918053335e-07
2.977437329e-07
3.032392831e-07
3.099554065e-07
3.120257143e-07
3.27871941e-07
3.064704145e-07
3.66769795e-07
2.589236117e-07
3.507384267e-07
1.771539532e-06
4.893582896e-06
5.455901438e-06
2.264266453e-08
4.654369362e-08
6.534365433e-08
8.148774575e-08
9.597179736e-08
1.092694104e-07
1.216529173e-07
1.332986752e-07
1.443293664e-07
1.548344332e-07
1.648812284e-07
1.745216109e-07
1.837961461e-07
1.927370233e-07
2.013701543e-07
2.097166782e-07
2.177940887e-07
2.256172016e-07
2.331990194e-07
2.405515e-07
2.47686311e-07
2.546153977e-07
2.613513537e-07
2.679074014e-07
2.74297335e-07
2.805337471e-07
2.866355483e-07
2.925878661e-07
2.985274513e-07
3.039396964e-07
3.108484283e-07
3.122740994e-07
3.297079055e-07
3.042965322e-07
3.720282605e-07
2.461406559e-07
4.756775277e-07
1.602438794e-06
5.011644624e-06
5.625016364e-06
2.265756355e-08
4.657702176e-08
6.542461546e-08
8.161897608e-08
9.615509196e-08
1.095062439e-07
1.219440767e-07
1.336445165e-07
1.447301562e-07
1.552904915e-07
1.653928635e-07
1.75088914e-07
1.844187767e-07
1.934140408e-07
2.02099875e-07
2.104965306e-07
2.186204698e-07
2.264853549e-07
2.341029984e-07
2.414842974e-07
2.486401309e-07
2.555821182e-07
2.623231099e-07
2.688771686e-07
2.752594954e-07
2.814836417e-07
2.875722103e-07
2.935016193e-07
2.994481924e-07
3.047571426e-07
3.119135545e-07
3.12563349e-07
3.318335849e-07
3.019796211e-07
3.77721104e-07
2.323255492e-07
4.969286753e-07
8.265025895e-07
5.138867574e-06
5.796301438e-06
2.267607029e-08
4.661870987e-08
6.552070939e-08
8.17722582e-08
9.636756935e-08
1.097795222e-07
1.222788967e-07
1.340411592e-07
1.451889614e-07
1.558120649e-07
1.659779408e-07
1.757380532e-07
1.85132072e-07
1.941909033e-07
2.029388539e-07
2.113951227e-07
2.195748976e-07
2.274903479e-07
2.35151685e-07
2.425683112e-07
2.497499538e-07
2.567077213e-07
2.634547632e-07
2.70006244e-07
2.763793552e-07
2.825890685e-07
2.886631161e-07
2.945666635e-07
3.005251065e-07
3.057176181e-07
3.131492754e-07
3.129984552e-07
3.340458791e-07
3.00114268e-07
3.828644373e-07
2.208838089e-07
5.385817659e-07
1.129522155e-06
5.263896143e-06
5.969290964e-06
2.269904606e-08
4.667042142e-08
6.563444177e-08
8.195094771e-08
9.661359181e-08
1.10094671e-07
1.22663788e-07
1.344959033e-07
1.457139701e-07
1.564083468e-07
1.66646842e-07
1.764808066e-07
1.859493975e-07
1.950827278e-07
2.0390411e-07
2.124315146e-07
2.206785748e-07
2.286555245e-07
2.363703761e-07
2.438304111e-07
2.510436694e-07
2.58020426e-07
2.647741753e-07
2.713215853e-07
2.776826414e-07
2.838743997e-07
2.899315925e-07
2.958057863e-07
3.017804944e-07
3.068463227e-07
3.145795298e-07
3.135810912e-07
3.365295612e-07
2.979940379e-07
3.893990644e-07
2.063946853e-07
5.98892964e-07
1.39618042e-06
5.383951734e-06
6.144158209e-06
2.272769921e-08
4.673425993e-08
6.576877274e-08
8.215891156e-08
9.689820538e-08
1.104579925e-07
1.231061621e-07
1.350171035e-07
1.463144693e-07
1.570897184e-07
1.674113041e-07
1.773305555e-07
1.868860384e-07
1.961069368e-07
2.050154401e-07
2.136281212e-07
2.219567284e-07
2.300089813e-07
2.377898509e-07
2.45303518e-07
2.52555539e-07
2.595548426e-07
2.663152705e-07
2.728555883e-07
2.791997915e-07
2.853680975e-07
2.914041851e-07
2.972464609e-07
3.032325534e-07
3.082033262e-07
3.161065455e-07
3.147788421e-07
3.381013997e-07
2.991983261e-07
3.916632523e-07
2.119884573e-07
6.714491206e-07
1.645502175e-06
5.498309682e-06
6.320985673e-06
2.276378485e-08
4.681298451e-08
6.592725246e-08
8.24006726e-08
9.722738417e-08
1.10877032e-07
1.236148918e-07
1.356146935e-07
1.470014343e-07
1.578684069e-07
1.682851462e-07
1.783030632e-07
1.879599919e-07
1.972840406e-07
2.062961763e-07
2.150114518e-07
2.234394022e-07
2.315845006e-07
2.394475252e-07
2.470280586e-07
2.543278484e-07
2.613536984e-07
2.681196836e-07
2.74647469e-07
2.809669482e-07
2.87103123e-07
2.931114201e-07
2.989182852e-07
3.04906379e-07
3.098431704e-07
3.176491887e-07
3.170910865e-07
3.373355498e-07
3.080081627e-07
3.845405496e-07
2.175415775e-07
2.277513815e-07
1.912892497e-06
5.603885654e-06
6.498801008e-06
2.281004029e-08
4.691025629e-08
6.611422537e-08
8.268178294e-08
9.760872528e-08
1.1136171e-07
1.242019217e-07
1.363023208e-07
1.477902536e-07
1.587618687e-07
1.692883176e-07
1.794211325e-07
1.891970929e-07
1.986430873e-07
2.077787526e-07
2.166175275e-07
2.251665051e-07
2.334260741e-07
2.413914051e-07
2.490554246e-07
2.564139446e-07
2.634704991e-07
2.702390261e-07
2.767450708e-07
2.830272994e-07
2.891176817e-07
2.9508893e-07
3.008484716e-07
3.068611358e-07
3.116758343e-07
3.197563075e-07
3.186914214e-07
3.395303972e-07
3.107362087e-07
3.843208269e-07
2.0588518e-07
3.933209896e-07
2.152902396e-06
5.699765261e-06
6.677413019e-06
2.287118887e-08
4.70311512e-08
6.633523546e-08
8.300941586e-08
9.80524441e-08
1.119258872e-07
1.248845705e-07
1.371005605e-07
1.487050549e-07
1.597984331e-07
1.704540786e-07
1.807234321e-07
1.906417461e-07
2.002343592e-07
2.095192895e-07
2.185080869e-07
2.272049788e-07
2.35605123e-07
2.436962813e-07
2.514620471e-07
2.588894754e-07
2.659777644e-07
2.7274047e-07
2.792083241e-07
2.854329154e-07
2.914565128e-07
2.973748945e-07
3.03076436e-07
3.091192004e-07
3.137866879e-07
3.223407634e-07
3.198173562e-07
3.452171314e-07
3.025854779e-07
4.031399183e-07
1.55812679e-07
5.101466097e-07
8.465858396e-07
5.791719588e-06
6.857576485e-06
2.295585592e-08
4.718212584e-08
6.659576875e-08
8.338956606e-08
9.856774187e-08
1.125819601e-07
1.256781238e-07
1.380274648e-07
1.497671984e-07
1.610038551e-07
1.718141045e-07
1.822486074e-07
1.923425713e-07
2.021173216e-07
2.115892819e-07
2.207691703e-07
2.296562014e-07
2.382380678e-07
2.464900387e-07
2.543810711e-07
2.618846286e-07
2.689949855e-07
2.757275323e-07
2.821223352e-07
2.882517526e-07
2.941731727e-07
3.000116732e-07
3.056486953e-07
3.116795717e-07
3.164002889e-07
3.247079133e-07
3.233625918e-07
3.458378456e-07
3.086951126e-07
4.077158337e-07
1.079652678e-07
5.34329864e-07
8.548167534e-07
5.890783525e-06
7.039144917e-06
2.30806336e-08
4.737199812e-08
6.690056263e-08
8.382290623e-08
9.916079107e-08
1.133342804e-07
1.26581077e-07
1.390737228e-07
1.509594483e-07
1.623543074e-07
1.733405561e-07
1.839654268e-07
1.94275064e-07
2.042704555e-07
2.139694958e-07
2.233974671e-07
2.325447535e-07
2.413930796e-07
2.498892722e-07
2.579745873e-07
2.655939113e-07
2.727250497e-07
2.793862526e-07
2.856385948e-07
2.915966102e-07
2.973447328e-07
3.030581212e-07
3.085910961e-07
3.14641898e-07
3.193523699e-07
3.276469334e-07
3.270513185e-07
3.466660515e-07
3.21739651e-07
3.900461464e-07
2.002575825e-07
5.578849478e-07
1.09261971e-06
5.987498775e-06
7.222051104e-06
2.329059951e-08
4.765657905e-08
6.732603811e-08
8.441018387e-08
9.999994296e-08
1.143830511e-07
1.278029343e-07
1.404493685e-07
1.524953903e-07
1.640759335e-07
1.752798517e-07
1.861347218e-07
1.967201819e-07
2.069405752e-07
2.168168476e-07
2.264524434e-07
2.358341352e-07
2.449766608e-07
2.537840095e-07
2.621742945e-07
2.70051511e-07
2.773177163e-07
2.839447466e-07
2.900031896e-07
2.956806716e-07
3.011261932e-07
3.066163912e-07
3.1195133e-07
3.1811611e-07
3.22508032e-07
3.316467497e-07
3.299101394e-07
3.516987283e-07
3.229765878e-07
3.989489927e-07
1.783536233e-07
5.953838987e-07
1.316919442e-06
6.080653592e-06
7.406216079e-06
2.376189614e-08
4.842088542e-08
6.849320589e-08
8.606999548e-08
1.02439663e-07
1.174193868e-07
1.313022947e-07
1.44369227e-07
1.568888635e-07
1.690450313e-07
1.809135864e-07
1.924309827e-07
2.036830237e-07
2.142453847e-07
2.240921709e-07
2.335033412e-07
2.424572628e-07
2.511071518e-07
2.593732431e-07
2.673402634e-07
2.750921e-07
2.824563671e-07
2.892059758e-07
2.952382929e-07
3.006945069e-07
3.057668149e-07
3.108878398e-07
3.159290574e-07
3.220169765e-07
3.263975824e-07
3.35856492e-07
3.337802663e-07
3.573901325e-07
3.243895779e-07
4.09917179e-07
1.428027115e-07
7.105411499e-07
1.494828905e-06
6.166139474e-06
7.591278291e-06
2.508346545e-08
5.119195705e-08
7.292103346e-08
9.256023473e-08
1.116593347e-07
1.288749969e-07
1.446513267e-07
1.59568627e-07
1.741811985e-07
1.887760002e-07
2.033240312e-07
2.174958112e-07
2.311606832e-07
2.432448283e-07
2.535370672e-07
2.624023834e-07
2.69612203e-07
2.753346112e-07
2.794694836e-07
2.826455471e-07
2.860221811e-07
2.901957015e-07
2.951605513e-07
3.005463191e-07
3.05941944e-07
3.10995616e-07
3.159890889e-07
3.207008324e-07
3.267198223e-07
3.309851726e-07
3.404362873e-07
3.395848946e-07
3.618394321e-07
3.292911871e-07
4.214936492e-07
1.341890068e-07
6.678350803e-07
1.672071476e-06
6.251258967e-06
7.77762229e-06
2.845315564e-08
5.922456938e-08
8.590437069e-08
1.114741424e-07
1.372156044e-07
1.601556196e-07
1.811075038e-07
2.012506678e-07
2.216288714e-07
2.426057053e-07
2.638641762e-07
2.8464153e-07
3.043012263e-07
3.212609084e-07
3.351189102e-07
3.459056091e-07
3.527271528e-07
3.549305223e-07
3.515597272e-07
3.43057282e-07
3.318493344e-07
3.209512465e-07
3.131269e-07
3.099742731e-07
3.112403535e-07
3.151777372e-07
3.205018386e-07
3.256728789e-07
3.323513167e-07
3.361924845e-07
3.469024017e-07
3.451749363e-07
3.679182011e-07
3.389621673e-07
4.28448086e-07
1.747753864e-07
7.145149879e-07
2.172349369e-06
6.330768769e-06
7.965031142e-06
3.492027021e-08
7.527084323e-08
1.116485781e-07
1.48027618e-07
1.843399134e-07
2.166786802e-07
2.465760979e-07
2.759420306e-07
3.062201016e-07
3.376372916e-07
3.694613304e-07
4.005715932e-07
4.299614141e-07
4.562415378e-07
4.790373296e-07
4.977216519e-07
5.104487098e-07
5.149494821e-07
5.084621661e-07
4.895945648e-07
4.597405337e-07
4.227874762e-07
3.848621306e-07
3.530656304e-07
3.324710451e-07
3.23446282e-07
3.235119371e-07
3.281403616e-07
3.364394178e-07
3.41755106e-07
3.547074037e-07
3.515195075e-07
3.784209613e-07
3.478412802e-07
4.229506287e-07
2.467311297e-07
5.762387874e-07
1.654121318e-06
6.395655747e-06
8.153504965e-06
4.430764449e-08
9.844697262e-08
1.483802558e-07
1.986538859e-07
2.472046293e-07
2.907264075e-07
3.31847709e-07
3.730063904e-07
4.155975266e-07
4.594283728e-07
5.034520608e-07
5.465915949e-07
5.881050024e-07
6.274501853e-07
6.64383339e-07
6.974968741e-07
7.238287625e-07
7.392078149e-07
7.388081143e-07
7.188774857e-07
6.784924297e-07
6.202647823e-07
5.507078378e-07
4.795561531e-07
4.171278086e-07
3.706482686e-07
3.43668434e-07
3.331599417e-07
3.366486846e-07
3.430875614e-07
3.608318058e-07
3.595452261e-07
3.929113351e-07
3.494444327e-07
4.454528607e-07
2.744640787e-07
1.557497611e-07
2.371409281e-06
6.456613962e-06
8.342231142e-06
5.584234981e-08
1.256321342e-07
1.906419362e-07
2.548705091e-07
3.145466511e-07
3.685819765e-07
4.208520659e-07
4.737482289e-07
5.280084206e-07
5.829428331e-07
6.376572554e-07
6.918196373e-07
7.456871337e-07
7.996967397e-07
8.534990159e-07
9.04873748e-07
9.498246098e-07
9.827314466e-07
9.972093529e-07
9.87406701e-07
9.497916615e-07
8.847498348e-07
7.97688276e-07
6.985605475e-07
5.985982623e-07
5.074357243e-07
4.335004931e-07
3.80323069e-07
3.529733845e-07
3.436937957e-07
3.590044935e-07
3.65553885e-07
4.026599294e-07
3.660391049e-07
4.619956763e-07
2.664898229e-07
5.852192361e-07
1.591881717e-06
6.516203022e-06
8.531758645e-06
6.935059788e-08
1.547490904e-07
2.340952565e-07
3.096884784e-07
3.77241345e-07
4.390026371e-07
4.996424563e-07
5.607052631e-07
6.219239129e-07
6.825586865e-07
7.427033448e-07
8.034603421e-07
8.662149311e-07
9.316175819e-07
9.9864807e-07
1.064588618e-06
1.125703982e-06
1.17719382e-06
1.213103809e-06
1.226266408e-06
1.209719473e-06
1.159663699e-06
1.078335561e-06
9.744108208e-07
8.58758188e-07
7.413066862e-07
6.298301987e-07
5.287864156e-07
4.479592532e-07
3.880456951e-07
3.68891107e-07
3.578507715e-07
4.125541992e-07
3.784085434e-07
4.671545706e-07
3.233369737e-07
9.088134819e-07
2.268784329e-06
6.585237776e-06
8.721682414e-06
8.437029214e-08
1.853194883e-07
2.768421086e-07
3.597618552e-07
4.310662741e-07
4.964778388e-07
5.6024184e-07
6.225329406e-07
6.825380396e-07
7.404989683e-07
7.98335195e-07
8.58574412e-07
9.22674766e-07
9.899772885e-07
1.058199747e-06
1.125089372e-06
1.189958142e-06
1.252599845e-06
1.310792117e-06
1.357787662e-06
1.382840455e-06
1.375861307e-06
1.332903029e-06
1.257984481e-06
1.159966525e-06
1.048348583e-06
9.284908699e-07
8.034128152e-07
6.79117709e-07
5.557193371e-07
4.529498453e-07
3.855064671e-07
3.987562321e-07
4.171766568e-07