/*--------------------------------*- C++ -*----------------------------------*\
| =========                 |                                                 |
| \\      /  F ield         | OpenFOAM: The Open Source CFD Toolbox           |
|  \\    /   O peration     | Version:  v1912                                 |
|   \\  /    A nd           | Website:  www.openfoam.com                      |
|    \\/     M anipulation  |                                                 |
\*---------------------------------------------------------------------------*/
FoamFile
{
    version     2.0;
    format      ascii;
    class       surfaceScalarField;
    location    "1";
    object      phi;
}
// * * * * * * * * * * * * * * * * * * * * * * * * * * * * * * * * * * * * * //

dimensions      [0 3 -1 0 0 0 0];
oriented        oriented;


internalField   nonuniform List<scalar> 
9440
(
4.111099443e-10
-4.111099444e-10
1.674909659e-09
-1.263799858e-09
3.780767925e-09
-2.105858557e-09
6.70550223e-09
-2.924734729e-09
1.041870418e-08
-3.713202498e-09
1.488191645e-08
-4.463212934e-09
2.004918486e-08
-5.167269169e-09
2.58674442e-08
-5.818260178e-09
3.227737991e-08
-6.409936597e-09
3.921424275e-08
-6.936863753e-09
4.660869694e-08
-7.394455104e-09
5.438776842e-08
-7.779072354e-09
6.247585766e-08
-8.088090059e-09
7.079580385e-08
-8.3199469e-09
7.926999005e-08
-8.474186761e-09
8.782147882e-08
-8.551489164e-09
9.637516728e-08
-8.553688646e-09
1.048589505e-07
-8.483783103e-09
1.132048823e-07
-8.345931499e-09
1.213503247e-07
-8.14544169e-09
1.292390747e-07
-7.88874897e-09
1.368224579e-07
-7.583381868e-09
1.440603479e-07
-7.237888209e-09
1.50921966e-07
-6.861615895e-09
1.573870169e-07
-6.465048264e-09
1.634529619e-07
-6.065941914e-09
1.691266019e-07
-5.673636529e-09
1.74425661e-07
-5.299055316e-09
1.793890893e-07
-4.963424065e-09
1.840761357e-07
-4.687041775e-09
1.885716504e-07
-4.495509831e-09
1.929851429e-07
-4.413487262e-09
1.975077168e-07
-4.522568524e-09
2.022771821e-07
-4.769459583e-09
2.080888625e-07
-5.811674556e-09
2.137838382e-07
-5.694969777e-09
2.267001611e-07
-1.291631675e-08
2.213123075e-07
5.387859902e-09
3.649414823e-07
-1.436419316e-07
3.75037439e-07
4.423299156e-10
-8.534399999e-10
1.773718447e-09
-2.59518879e-09
3.986933484e-09
-4.31907424e-09
7.060338347e-09
-5.998140463e-09
1.096323765e-08
-7.616102871e-09
1.565671521e-08
-9.156691747e-09
2.109407901e-08
-1.060463436e-08
2.722148108e-08
-1.194566374e-08
3.39788141e-08
-1.316727115e-08
4.130037503e-08
-1.425842621e-08
4.911576684e-08
-1.520984841e-08
5.735085478e-08
-1.601416165e-08
6.5928783e-08
-1.666601946e-08
7.477104317e-08
-1.716220802e-08
8.379858545e-08
-1.750172967e-08
9.293296151e-08
-1.768586549e-08
1.020974892e-07
-1.771821615e-08
1.112184277e-07
-1.760472089e-08
1.202261525e-07
-1.735365506e-08
1.290563206e-07
-1.697560795e-08
1.37651017e-07
-1.648344286e-08
1.459598807e-07
-1.589224243e-08
1.539412466e-07
-1.521925015e-08
1.6156354e-07
-1.448390471e-08
1.688069818e-07
-1.370848472e-08
1.756615531e-07
-1.292050708e-08
1.821337913e-07
-1.214586802e-08
1.882434559e-07
-1.140871248e-08
1.940263923e-07
-1.074635238e-08
1.995393934e-07
-1.020003435e-08
2.04863681e-07
-9.81978828e-09
2.1010989e-07
-9.659686739e-09
2.154396201e-07
-9.852288645e-09
2.210068183e-07
-1.03366476e-08
2.272939331e-07
-1.209877881e-08
2.338917252e-07
-1.229275106e-08
2.463692151e-07
-2.539379559e-08
2.462904641e-07
5.466622171e-09
3.01568991e-07
-1.989403326e-07
6.884275394e-07
4.46877726e-10
-1.300317839e-09
1.787753548e-09
-3.936064958e-09
4.013733061e-09
-6.545054318e-09
7.104023553e-09
-9.088431723e-09
1.102815082e-08
-1.154023109e-08
1.574710983e-08
-1.387565187e-08
2.121405208e-08
-1.607157784e-08
2.737504844e-08
-1.810666143e-08
3.416962606e-08
-1.996185015e-08
4.153170774e-08
-2.162050928e-08
4.93904929e-08
-2.306863491e-08
5.76714156e-08
-2.42950856e-08
6.629716457e-08
-2.529176953e-08
7.518875597e-08
-2.605380032e-08
8.426664853e-08
-2.657962288e-08
9.345189058e-08
-2.687110786e-08
1.02667288e-07
-2.693361355e-08
1.118385825e-07
-2.677601487e-08
1.208956288e-07
-2.641070044e-08
1.297735632e-07
-2.585354084e-08
1.384139576e-07
-2.512383526e-08
1.467659711e-07
-2.42442534e-08
1.547875408e-07
-2.324081661e-08
1.624466709e-07
-2.214303093e-08
1.697225277e-07
-2.098433716e-08
1.766045637e-07
-1.980253794e-08
1.830955439e-07
-1.863684262e-08
1.892148044e-07
-1.752796675e-08
1.949958207e-07
-1.652736201e-08
2.004906066e-07
-1.569481299e-08
2.057730458e-07
-1.510221992e-08
2.109438922e-07
-1.483052506e-08
2.161313519e-07
-1.503974001e-08
2.214799072e-07
-1.568519425e-08
2.272937686e-07
-1.791263135e-08
2.333354674e-07
-1.833444077e-08
2.421833806e-07
-3.424169954e-08
2.438015307e-07
3.848481618e-09
2.613288751e-07
-2.165021021e-07
9.631561073e-07
4.516526936e-10
-1.751970646e-09
1.805639651e-09
-5.290052264e-09
4.051633702e-09
-8.79104894e-09
7.168684574e-09
-1.220548337e-08
1.11261807e-08
-1.549772818e-08
1.588475476e-08
-1.863422705e-08
2.139704659e-08
-2.158387094e-08
2.760840952e-08
-2.431802571e-08
3.445761603e-08
-2.681105806e-08
4.187771614e-08
-2.904061081e-08
4.979695543e-08
-3.098787558e-08
5.813974574e-08
-3.26378772e-08
6.682769742e-08
-3.397972237e-08
7.578070384e-08
-3.500680769e-08
8.49180681e-08
-3.571698784e-08
9.415966195e-08
-3.611270211e-08
1.034271059e-07
-3.620105756e-08
1.126449596e-07
-3.599386823e-08
1.217419119e-07
-3.550765191e-08
1.306519618e-07
-3.476358954e-08
1.393155875e-07
-3.378745908e-08
1.476809035e-07
-3.260956708e-08
1.557048089e-07
-3.126471905e-08
1.633540581e-07
-2.979227663e-08
1.706060056e-07
-2.823628052e-08
1.774487758e-07
-2.664530349e-08
1.838832325e-07
-2.507129409e-08
1.899257194e-07
-2.357044783e-08
1.956067608e-07
-2.220839715e-08
2.009728543e-07
-2.106089989e-08
2.060893629e-07
-2.021872133e-08
2.110419304e-07
-1.978308513e-08
2.159336553e-07
-1.993145712e-08
2.208792345e-07
-2.063076532e-08
2.260017593e-07
-2.303514787e-08
2.312217826e-07
-2.355445561e-08
2.36705534e-07
-3.972544225e-08
2.396318948e-07
9.221297832e-10
2.432850417e-07
-2.202023646e-07
1.221095917e-06
4.573476557e-10
-2.209318419e-09
1.828068234e-09
-6.660773208e-09
4.100885847e-09
-1.106386715e-08
7.254318948e-09
-1.535891729e-08
1.125732341e-08
-1.950073365e-08
1.606993185e-08
-2.344683668e-08
2.164401894e-08
-2.715795935e-08
2.792398774e-08
-3.059799594e-08
3.484754122e-08
-3.373461303e-08
4.234653726e-08
-3.653960834e-08
5.034791988e-08
-3.898925967e-08
5.877470898e-08
-4.106466768e-08
6.754704818e-08
-4.275206281e-08
7.658330471e-08
-4.404306527e-08
8.580121196e-08
-4.49348959e-08
9.511904468e-08
-4.543053535e-08
1.044568159e-07
-4.553882898e-08
1.137374843e-07
-4.527453638e-08
1.2288816e-07
-4.465832697e-08
1.318412989e-07
-4.371672728e-08
1.405358736e-07
-4.248203215e-08
1.489185086e-07
-4.099220001e-08
1.569445492e-07
-3.929075688e-08
1.645789963e-07
-3.742672056e-08
1.717972207e-07
-3.545450106e-08
1.785855925e-07
-3.34336709e-08
1.849429632e-07
-3.14286599e-08
1.908822575e-07
-2.950973668e-08
1.964301635e-07
-2.775629726e-08
2.016274871e-07
-2.625821718e-08
2.065299421e-07
-2.512116959e-08
2.112076188e-07
-2.446075483e-08
2.157410913e-07
-2.446492221e-08
2.202230397e-07
-2.511270608e-08
2.246420623e-07
-2.745416253e-08
2.291709431e-07
-2.808332837e-08
2.326505508e-07
-4.320504174e-08
2.360199907e-07
-2.447301597e-09
2.31110213e-07
-2.153452493e-07
1.467690816e-06
4.641977882e-10
-2.673516332e-09
1.855494709e-09
-8.052070516e-09
4.161960012e-09
-1.337033309e-08
7.361429353e-09
-1.85583875e-08
1.142217798e-08
-2.356148336e-08
1.630339659e-08
-2.832805655e-08
2.195593607e-08
-3.281050022e-08
2.832298455e-08
-3.696504594e-08
3.534086866e-08
-4.075249871e-08
4.293992485e-08
-4.413866612e-08
5.104544494e-08
-4.709478131e-08
5.957868546e-08
-4.959790967e-08
6.845793479e-08
-5.163131348e-08
7.759963223e-08
-5.318476387e-08
8.691953033e-08
-5.425479493e-08
9.633389067e-08
-5.484489632e-08
1.057607017e-07
-5.496564035e-08
1.151209067e-07
-5.463474126e-08
1.24339627e-07
-5.387704681e-08
1.333473672e-07
-5.272446653e-08
1.420811825e-07
-5.121584607e-08
1.504857864e-07
-4.939680194e-08
1.585145646e-07
-4.731953265e-08
1.661304623e-07
-4.504261526e-08
1.733067394e-07
-4.263077468e-08
1.800277238e-07
-4.015465118e-08
1.862898814e-07
-3.769081301e-08
1.921027301e-07
-3.532258028e-08
1.974886099e-07
-3.314217156e-08
2.024826085e-07
-3.125220985e-08
2.071315851e-07
-2.977013998e-08
2.114930834e-07
-2.882224647e-08
2.156266865e-07
-2.859851833e-08
2.196156685e-07
-2.91016809e-08
2.233851465e-07
-3.122363313e-08
2.273509721e-07
-3.204914632e-08
2.297003319e-07
-4.555439377e-08
2.357292368e-07
-8.476198452e-09
2.21241719e-07
-2.008961531e-07
1.704956481e-06
4.72342549e-10
-3.145859014e-09
1.888270195e-09
-9.467998575e-09
4.235352009e-09
-1.571741559e-08
7.490661297e-09
-2.181369771e-08
1.16215936e-08
-2.769241681e-08
1.658626311e-08
-3.32927274e-08
2.233423676e-08
-3.855847536e-08
2.880720822e-08
-4.343801899e-08
3.593981819e-08
-4.788511035e-08
4.366054582e-08
-5.185939544e-08
5.189267323e-08
-5.532691037e-08
6.055531606e-08
-5.826055407e-08
6.956451291e-08
-6.064051177e-08
7.883436705e-08
-6.245461927e-08
8.827823233e-08
-6.369866124e-08
9.780993344e-08
-6.437659819e-08
1.073450088e-07
-6.450071618e-08
1.168019624e-07
-6.409169488e-08
1.261035075e-07
-6.317859162e-08
1.351777846e-07
-6.179874293e-08
1.439595296e-07
-5.999758986e-08
1.523911672e-07
-5.782843783e-08
1.604238027e-07
-5.535216597e-08
1.680180971e-07
-5.263690695e-08
1.751450428e-07
-4.975771721e-08
1.817866881e-07
-4.679629274e-08
1.879368826e-07
-4.384100336e-08
1.936017832e-07
-4.098747619e-08
1.987995617e-07
-3.833994507e-08
2.035598489e-07
-3.601249151e-08
2.079222026e-07
-3.413248787e-08
2.119345408e-07
-3.283457849e-08
2.156416876e-07
-3.230565869e-08
2.191221576e-07
-3.258214413e-08
2.222781658e-07
-3.437963435e-08
2.256422494e-07
-3.541322275e-08
2.271401281e-07
-4.705226524e-08
2.375688628e-07
-1.890492563e-08
2.127342444e-07
-1.760934939e-07
1.934056302e-06
4.818715891e-10
-3.627730745e-09
1.926674286e-09
-1.091280171e-08
4.321546238e-09
-1.811228826e-08
7.642730312e-09
-2.513488276e-08
1.185657106e-08
-3.190625877e-08
1.691988056e-08
-3.835603831e-08
2.278067993e-08
-4.441927629e-08
2.937888063e-08
-5.003622137e-08
3.664712161e-08
-5.515335308e-08
4.451168242e-08
-5.972395802e-08
5.289347061e-08
-6.37087003e-08
6.170907628e-08
-6.70761614e-08
7.087188637e-08
-6.98033234e-08
8.029325222e-08
-7.187598648e-08
8.988370258e-08
-7.328911275e-08
9.955419241e-08
-7.404708889e-08
1.092173751e-07
-7.416389939e-08
1.187888826e-07
-7.366320266e-08
1.281885957e-07
-7.257830458e-08
1.37341881e-07
-7.095202763e-08
1.461807708e-07
-6.883647872e-08
1.546450603e-07
-6.629272591e-08
1.626832976e-07
-6.339040129e-08
1.702536552e-07
-6.020726215e-08
1.773246968e-07
-5.682875598e-08
1.838760332e-07
-5.334762583e-08
1.898988256e-07
-4.986379191e-08
1.953960212e-07
-4.64846676e-08
2.003820009e-07
-4.332592012e-08
2.048816559e-07
-4.051214149e-08
2.089287272e-07
-3.817955385e-08
2.125642002e-07
-3.647004573e-08
2.158237919e-07
-3.556524446e-08
2.187800925e-07
-3.553843853e-08
2.213433958e-07
-3.694293121e-08
2.241050562e-07
-3.817487652e-08
2.245515531e-07
-4.74987554e-08
2.354672768e-07
-2.982064226e-08
2.047937906e-07
-1.454439437e-07
2.155415059e-06
4.92856476e-10
-4.120587372e-09
1.970961946e-09
-1.239090764e-08
4.421043077e-09
-2.056237014e-08
7.818435576e-09
-2.853227628e-08
1.212827208e-08
-3.621609653e-08
1.730584241e-08
-4.353361011e-08
2.329735677e-08
-5.041079229e-08
3.00406503e-08
-5.677951665e-08
3.746603717e-08
-6.257874178e-08
4.549724754e-08
-6.775517023e-08
5.405244172e-08
-7.226389629e-08
6.304529139e-08
-7.606901281e-08
7.238612141e-08
-7.914415503e-08
8.198310615e-08
-8.147297264e-08
9.174351305e-08
-8.304952087e-08
1.015749841e-07
-8.387856091e-08
1.113868424e-07
-8.397575834e-08
1.210914073e-07
-8.336776796e-08
1.306052983e-07
-8.209219556e-08
1.39850702e-07
-8.019743093e-08
1.48756577e-07
-7.774235297e-08
1.572597692e-07
-7.479591686e-08
1.653060132e-07
-7.143664366e-08
1.728508036e-07
-6.775205046e-08
1.798601347e-07
-6.383808453e-08
1.863110932e-07
-5.979858139e-08
1.921921963e-07
-5.574489154e-08
1.975034264e-07
-5.17958939e-08
2.022558103e-07
-4.807829985e-08
2.064704762e-07
-4.472680281e-08
2.101766962e-07
-4.188576892e-08
2.134106468e-07
-3.970399115e-08
2.162028797e-07
-3.835747187e-08
2.186193293e-07
-3.795488252e-08
2.205756781e-07
-3.889927405e-08
2.227129415e-07
-4.031213376e-08
2.221689658e-07
-4.695477344e-08
2.312536205e-07
-3.890529048e-08
1.975189598e-07
-1.117244625e-07
2.369623797e-06
5.053635751e-10
-4.625951105e-09
2.021387244e-09
-1.390693179e-08
4.53437661e-09
-2.307536029e-08
8.018669643e-09
-3.201657037e-08
1.243802552e-08
-4.063545372e-08
1.774599258e-08
-4.884157869e-08
2.388669874e-08
-5.655150013e-08
3.079560229e-08
-6.368842201e-08
3.840036157e-08
-7.018350293e-08
4.662179915e-08
-7.597660971e-08
5.537494664e-08
-8.101704564e-08
6.457015541e-08
-8.526422336e-08
7.41142683e-08
-8.868826957e-08
8.391184735e-08
-9.127055318e-08
9.386645142e-08
-9.300412622e-08
1.038819547e-07
-9.389406525e-08
1.138638937e-07
-9.395769807e-08
1.23720825e-07
-9.322469967e-08
1.333656723e-07
-9.173704304e-08
1.427170363e-07
-8.954879461e-08
1.517004366e-07
-8.67257527e-08
1.602494593e-07
-8.334493853e-08
1.683067795e-07
-7.949396243e-08
1.758250367e-07
-7.527030589e-08
1.82767546e-07
-7.078059159e-08
1.891088358e-07
-6.613986853e-08
1.948348933e-07
-6.147094591e-08
1.999430511e-07
-5.690404829e-08
2.044415085e-07
-5.257675352e-08
2.083484406e-07
-4.86337308e-08
2.116900129e-07
-4.522733677e-08
2.144995796e-07
-4.251355307e-08
2.168057424e-07
-4.066362972e-08
2.186685302e-07
-3.981766513e-08
2.199929537e-07
-4.022369206e-08
2.213037897e-07
-4.162296413e-08
2.200898791e-07
-4.574085705e-08
2.284506531e-07
-4.726605849e-08
1.911196627e-07
-7.439568703e-08
2.577511041e-06
5.194604215e-10
-5.145411691e-09
2.078217713e-09
-1.546568958e-08
4.662129186e-09
-2.565927257e-08
8.244429991e-09
-3.559887227e-08
1.27873372e-08
-4.517836227e-08
1.824243542e-08
-5.429667846e-08
2.455148887e-08
-6.28605553e-08
3.164727139e-08
-7.078420636e-08
3.945444514e-08
-7.799067858e-08
4.789055736e-08
-8.441272383e-08
5.686711994e-08
-8.999361009e-08
6.629075226e-08
-9.468785746e-08
7.606438478e-08
-9.846190375e-08
8.608852065e-08
-1.012946905e-07
9.626255051e-08
-1.031781574e-07
1.064861129e-07
-1.041176287e-07
1.166604882e-07
-1.041320741e-07
1.266900078e-07
-1.032542198e-07
1.364834563e-07
-1.015304917e-07
1.459554352e-07
-9.902077344e-08
1.550276582e-07
-9.579797525e-08
1.636301415e-07
-9.194742098e-08
1.717022583e-07
-8.756607804e-08
1.791936271e-07
-8.27616731e-08
1.860648023e-07
-7.765176474e-08
1.922877586e-07
-7.236282248e-08
1.978460988e-07
-6.702928348e-08
2.027348587e-07
-6.179280508e-08
2.069599654e-07
-5.680185681e-08
2.105374153e-07
-5.221117701e-08
2.134913013e-07
-4.818121875e-08
2.158536506e-07
-4.487589802e-08
2.176537364e-07
-4.246371099e-08
2.189471437e-07
-4.111106766e-08
2.196638239e-07
-4.09403673e-08
2.203786796e-07
-4.233781468e-08
2.183967841e-07
-4.375895612e-08
2.258171928e-07
-5.468646168e-08
1.853349101e-07
-3.390120037e-08
2.779662062e-06
5.352191302e-10
-5.680630991e-09
2.141743455e-09
-1.707221441e-08
4.804943202e-09
-2.832247313e-08
8.496831185e-09
-3.929076135e-08
1.317790194e-08
-4.985943437e-08
1.879754837e-08
-5.991632643e-08
2.529487621e-08
-6.935788486e-08
3.259965893e-08
-7.80889909e-08
4.063321102e-08
-8.602423256e-08
4.930942577e-08
-9.308894046e-08
5.85358942e-08
-9.922008036e-08
6.821508158e-08
-1.043670466e-07
7.824556462e-08
-1.084923884e-07
8.852332873e-08
-1.115724561e-07
9.894312307e-08
-1.13597953e-07
1.093998676e-07
-1.145743743e-07
1.197901011e-07
-1.145223084e-07
1.30013452e-07
-1.134775712e-07
1.399741066e-07
-1.114911465e-07
1.495822428e-07
-1.086289096e-07
1.587553907e-07
-1.049711227e-07
1.67419681e-07
-1.006117106e-07
1.755109426e-07
-9.565733863e-08
1.829756136e-07
-9.022634263e-08
1.897714247e-07
-8.444757415e-08
1.958678364e-07
-7.845923203e-08
2.012462254e-07
-7.240767004e-08
2.058996822e-07
-6.644625918e-08
2.098324114e-07
-6.073458294e-08
2.13058927e-07
-5.543768918e-08
2.156022005e-07
-5.072448859e-08
2.174939394e-07
-4.676763306e-08
2.187646581e-07
-4.373442548e-08
2.194739469e-07
-4.182035209e-08
2.195776165e-07
-4.104403232e-08
2.196491777e-07
-4.240937105e-08
2.170316916e-07
-4.114146505e-08
2.240650454e-07
-6.17198103e-08
1.799675978e-07
1.022439019e-08
2.976475142e-06
5.527184916e-10
-6.233349654e-09
2.21228348e-09
-1.87317799e-08
4.96353104e-09
-3.10737215e-08
8.777117717e-09
-4.310434912e-08
1.361161778e-08
-5.469393577e-08
1.941399699e-08
-6.571870718e-08
2.612039348e-08
-7.606428303e-08
3.365725379e-08
-8.562585298e-08
4.194217839e-08
-9.430915899e-08
5.088501693e-08
-1.020317808e-07
6.038902765e-08
-1.087240929e-07
7.035208887e-08
-1.143301095e-07
8.066797052e-08
-1.188082716e-07
9.122766836e-08
-1.221321553e-07
1.019208016e-07
-1.242910874e-07
1.126370712e-07
-1.252906449e-07
1.2326777e-07
-1.251530079e-07
1.337073245e-07
-1.239171263e-07
1.438548442e-07
-1.216386664e-07
1.536156389e-07
-1.183897042e-07
1.629026617e-07
-1.142581452e-07
1.716378309e-07
-1.093468791e-07
1.797531837e-07
-1.037726905e-07
1.871918208e-07
-9.766497839e-08
1.939085947e-07
-9.116434651e-08
1.998705167e-07
-8.442115213e-08
2.050569117e-07
-7.759406276e-08
2.09459248e-07
-7.084859294e-08
2.130805025e-07
-6.435583463e-08
2.159343284e-07
-5.829151199e-08
2.180433934e-07
-5.283355021e-08
2.194400439e-07
-4.816427997e-08
2.201564779e-07
-4.445085557e-08
2.202549286e-07
-4.191879882e-08
2.196984587e-07
-4.048755814e-08
2.190305085e-07
-4.174141628e-08
2.15876117e-07
-3.798706898e-08
2.223782726e-07
-6.822177509e-08
1.750932894e-07
5.755407959e-08
3.168431528e-06
5.720455246e-10
-6.805395349e-09
2.290190842e-09
-2.044992571e-08
5.138683549e-09
-3.3922215e-08
9.08667702e-09
-4.705234365e-08
1.409060276e-08
-5.96978628e-08
2.009475194e-08
-7.172285783e-08
2.703198031e-08
-8.300151302e-08
3.48250579e-08
-9.341893228e-08
4.338749001e-08
-1.028715928e-07
5.262468189e-08
-1.112689744e-07
6.243513606e-08
-1.185345487e-07
7.271169987e-08
-1.246066749e-07
8.334287153e-08
-1.294394447e-07
9.421417134e-08
-1.330034564e-07
1.052095833e-07
-1.352865004e-07
1.162130693e-07
-1.362941318e-07
1.271101478e-07
-1.36050087e-07
1.3778952e-07
-1.345964988e-07
1.481447126e-07
-1.319938592e-07
1.58075698e-07
-1.283206894e-07
1.674904366e-07
-1.236728835e-07
1.763062899e-07
-1.181627317e-07
1.844512462e-07
-1.119176459e-07
1.918649089e-07
-1.050786398e-07
1.984992011e-07
-9.779863724e-08
2.043187648e-07
-9.024071404e-08
2.093010709e-07
-8.257636675e-08
2.134362562e-07
-7.498377589e-08
2.167265043e-07
-6.764608014e-08
2.191851975e-07
-6.075020229e-08
2.20835361e-07
-5.448371059e-08
2.217106534e-07
-4.903956889e-08
2.2184552e-07
-4.458571861e-08
2.213052328e-07
-4.137850773e-08
2.200565864e-07
-3.923890775e-08
2.186210137e-07
-4.030583937e-08
2.147400476e-07
-3.410609855e-08
2.200974289e-07
-7.357838793e-08
1.706842054e-07
1.070281771e-07
3.355988201e-06
5.932968759e-10
-7.398692392e-09
2.37585758e-09
-2.223248689e-08
5.331278871e-09
-3.687763705e-08
9.427053651e-09
-5.114811944e-08
1.461721678e-08
-6.488802715e-08
2.084310658e-08
-7.794874903e-08
2.803401165e-08
-9.01924196e-08
3.610861615e-08
-1.014935384e-07
4.497594428e-08
-1.117389226e-07
5.453654446e-08
-1.208295762e-07
6.468372905e-08
-1.286817348e-07
7.530485935e-08
-1.352278065e-07
8.6282685e-08
-1.404172716e-07
9.749675054e-08
-1.44217523e-07
1.088248813e-07
-1.466146321e-07
1.201447565e-07
-1.476140077e-07
1.313355654e-07
-1.472408964e-07
1.422797281e-07
-1.455406617e-07
1.528646499e-07
-1.42578781e-07
1.629844635e-07
-1.384405029e-07
1.725416928e-07
-1.332301124e-07
1.814487761e-07
-1.270698144e-07
1.896293809e-07
-1.200982498e-07
1.97019446e-07
-1.124687037e-07
2.035679169e-07
-1.043471066e-07
2.092371509e-07
-9.590994635e-08
2.140029842e-07
-8.734219802e-08
2.178545177e-07
-7.883530713e-08
2.207935488e-07
-7.058510875e-08
2.228337377e-07
-6.279038843e-08
2.239990809e-07
-5.56490508e-08
2.243249046e-07
-4.936538927e-08
2.238479331e-07
-4.410874371e-08
2.226392963e-07
-4.016986722e-08
2.206675243e-07
-3.72671319e-08
2.184135307e-07
-3.805184173e-08
2.13737174e-07
-2.942973764e-08
2.177665456e-07
-7.760610811e-08
1.66521363e-07
1.583497981e-07
3.539385283e-06
6.165802752e-10
-8.015272827e-09
2.469720157e-09
-2.408562722e-08
5.542292442e-09
-3.995021005e-08
9.799941452e-09
-5.540576939e-08
1.519406987e-08
-7.028215669e-08
2.166274004e-08
-8.441742048e-08
2.913133053e-08
-9.766101147e-08
3.751405092e-08
-1.098762602e-07
4.671503258e-08
-1.209399057e-07
5.662954041e-08
-1.307440854e-07
6.714525105e-08
-1.391974467e-07
7.814357441e-08
-1.462261311e-07
8.950102307e-08
-1.517747213e-07
1.010906507e-07
-1.558071515e-07
1.127835807e-07
-1.583075627e-07
1.244506405e-07
-1.592810681e-07
1.359641025e-07
-1.587543587e-07
1.471995126e-07
-1.567760719e-07
1.580375751e-07
-1.534168434e-07
1.683660402e-07
-1.487689676e-07
1.780815143e-07
-1.42945586e-07
1.870911189e-07
-1.360794181e-07
1.953139109e-07
-1.283210408e-07
2.026819935e-07
-1.19836785e-07
2.091412899e-07
-1.108064016e-07
2.146519572e-07
-1.014206119e-07
2.191884217e-07
-9.18786605e-08
2.227390896e-07
-8.238597284e-08
2.253057769e-07
-7.31517935e-08
2.269029115e-07
-6.438752032e-08
2.27556037e-07
-5.63021734e-08
2.273027059e-07
-4.911205492e-08
2.26182687e-07
-4.298872142e-08
2.242719992e-07
-3.825917588e-08
2.215406608e-07
-3.453578963e-08
2.184486634e-07
-3.495984028e-08
2.130556522e-07
-2.403672238e-08
2.157319298e-07
-8.02797257e-08
1.626011179e-07
2.115722075e-07
3.718860657e-06
6.420160628e-10
-8.657289039e-09
2.572265583e-09
-2.601587715e-08
5.772812344e-09
-4.315075746e-08
1.020724327e-08
-5.984020117e-08
1.582405764e-08
-7.589897208e-08
2.255769973e-08
-9.11510637e-08
3.032927757e-08
-1.054325905e-07
3.904810092e-08
-1.185950848e-07
4.861298173e-08
-1.305047877e-07
5.891346198e-08
-1.410445668e-07
6.983112758e-08
-1.501151134e-07
8.124096254e-08
-1.57635967e-07
9.301274364e-08
-1.635465032e-07
1.050125043e-07
-1.678069129e-07
1.171041016e-07
-1.703991604e-07
1.29150913e-07
-1.713278798e-07
1.41017669e-07
-1.706211147e-07
1.525724038e-07
-1.683308066e-07
1.636884909e-07
-1.645329301e-07
1.742467053e-07
-1.593271815e-07
1.841372092e-07
-1.528360892e-07
1.932613764e-07
-1.452035844e-07
2.015333439e-07
-1.365930072e-07
2.088812081e-07
-1.271846479e-07
2.152478354e-07
-1.171730273e-07
2.205912736e-07
-1.067640483e-07
2.2488476e-07
-9.617214488e-08
2.281163682e-07
-8.561757874e-08
2.302883712e-07
-7.532379401e-08
2.314164562e-07
-6.551560261e-08
2.315282715e-07
-5.641398568e-08
2.306641641e-07
-4.82479443e-08
2.288676981e-07
-4.119225203e-08
2.262194569e-07
-3.561093105e-08
2.226959162e-07
-3.101224511e-08
2.18734438e-07
-3.099835812e-08
2.126116171e-07
-1.791389733e-08
2.139410782e-07
-8.160552432e-08
1.589626187e-07
2.666574235e-07
3.894693332e-06
6.697389056e-10
-9.327028081e-09
2.68403789e-09
-2.80301765e-08
6.024051641e-09
-4.649077177e-08
1.065107426e-08
-6.446722453e-08
1.651039205e-08
-8.175829074e-08
2.353245765e-08
-9.817313027e-08
3.163373303e-08
-1.135338669e-07
4.071816428e-08
-1.27679517e-07
5.067880166e-08
-1.40465426e-07
6.139901058e-08
-1.517647766e-07
7.275381961e-08
-1.614699232e-07
8.461130671e-08
-1.694934547e-07
9.683400729e-08
-1.757692042e-07
1.092803925e-07
-1.802532984e-07
1.218064672e-07
-1.829252352e-07
1.342675283e-07
-1.837889408e-07
1.465200964e-07
-1.828736826e-07
1.584240033e-07
-1.802347131e-07
1.698446019e-07
-1.759535282e-07
1.806550391e-07
-1.701376179e-07
1.9073845e-07
-1.629194992e-07
1.99989985e-07
-1.544551182e-07
2.083185254e-07
-1.449215464e-07
2.156479841e-07
-1.345141051e-07
2.219181523e-07
-1.234431939e-07
2.270850844e-07
-1.119309784e-07
2.311210612e-07
-1.002081196e-07
2.340141821e-07
-8.851069724e-08
2.357676504e-07
-7.707725971e-08
2.363989344e-07
-6.614688374e-08
2.359383577e-07
-5.595340597e-08
2.344295999e-07
-4.673918314e-08
2.319208012e-07
-3.868344989e-08
2.284965226e-07
-3.218664876e-08
2.241431631e-07
-2.665888177e-08
2.192754785e-07
-2.613066935e-08
2.123198552e-07
-1.095826985e-08
2.123342643e-07
-8.161533904e-08
1.555366287e-07
3.235766838e-07
4.067094422e-06
6.999004117e-10
-1.002692861e-08
2.805647397e-09
-3.01359238e-08
6.297365418e-09
-4.998249027e-08
1.113378985e-08
-6.930364957e-08
1.725664413e-08
-8.788114575e-08
2.459196023e-08
-1.055084471e-07
3.305116344e-08
-1.219930709e-07
4.253234878e-08
-1.371607031e-07
5.292234802e-08
-1.50855426e-07
6.409786123e-08
-1.629402904e-07
7.592688892e-08
-1.732989514e-07
8.827012192e-08
-1.81836688e-07
1.009823455e-07
-1.88481428e-07
1.139139165e-07
-1.931848694e-07
1.269123813e-07
-1.959236999e-07
1.398242911e-07
-1.967008504e-07
1.524972398e-07
-1.955466308e-07
1.647821031e-07
-1.925195757e-07
1.765354515e-07
-1.877068759e-07
1.876220761e-07
-1.812242415e-07
1.979174353e-07
-1.732148572e-07
2.07309929e-07
-1.638476106e-07
2.157028157e-07
-1.533144316e-07
2.230156328e-07
-1.418269204e-07
2.291850882e-07
-1.296126474e-07
2.341654017e-07
-1.169112899e-07
2.379281725e-07
-1.03970888e-07
2.404618921e-07
-9.104441428e-08
2.417711637e-07
-7.838652855e-08
2.418757827e-07
-6.625149986e-08
2.40809371e-07
-5.488699103e-08
2.38619588e-07
-4.454939666e-08
2.353603593e-07
-3.542421757e-08
2.31118514e-07
-2.794479969e-08
2.258930847e-07
-2.143344837e-08
2.200850761e-07
-2.032265656e-08
2.122273156e-07
-3.100504974e-09
2.108924307e-07
-8.027501406e-08
1.522880158e-07
3.823173029e-07
4.23624084e-06
7.326728627e-10
-1.075960157e-08
2.937783747e-09
-3.234103493e-08
6.594275637e-09
-5.363898254e-08
1.165801552e-08
-7.436738994e-08
1.806679164e-08
-9.428992242e-08
2.57417016e-08
-1.131833577e-07
3.458867528e-08
-1.308400452e-07
4.449956252e-08
-1.470715909e-07
5.535439751e-08
-1.617102614e-07
6.702273326e-08
-1.746086265e-07
7.936507097e-08
-1.856412893e-07
9.223423348e-08
-1.947058506e-07
1.054767449e-07
-2.017239393e-07
1.189342881e-07
-2.066424124e-07
1.324453259e-07
-2.094347372e-07
1.458469637e-07
-2.101024876e-07
1.58977098e-07
-2.086767643e-07
1.716768226e-07
-2.052192994e-07
1.837930773e-07
-1.998231295e-07
1.951814791e-07
-1.926126421e-07
2.057090769e-07
-1.837424537e-07
2.152569305e-07
-1.733954627e-07
2.237222723e-07
-1.617797717e-07
2.310200631e-07
-1.491247094e-07
2.370839281e-07
-1.356765103e-07
2.418664453e-07
-1.216938049e-07
2.453388737e-07
-1.074433139e-07
2.474905084e-07
-9.31960462e-08
2.483278175e-07
-7.92238348e-08
2.478734561e-07
-6.579713527e-08
2.461649167e-07
-5.317844823e-08
2.432545948e-07
-4.163907118e-08
2.392029241e-07
-3.137254299e-08
2.341021204e-07
-2.284399201e-08
2.279716616e-07
-1.530298534e-08
2.211630818e-07
-1.351407236e-08
2.12344478e-07
5.71810339e-09
2.095696331e-07
-7.749396597e-08
1.49183988e-07
4.428534002e-07
4.402277143e-06
7.682518422e-10
-1.15278535e-08
3.08122604e-09
-3.465400932e-08
6.916491902e-09
-5.747424868e-08
1.222668482e-08
-7.967758319e-08
1.894521793e-08
-1.010084559e-07
2.698776343e-08
-1.212259035e-07
3.625415863e-08
-1.401064407e-07
4.662958762e-08
-1.574470201e-07
5.798671143e-08
-1.730673854e-07
7.018745242e-08
-1.868093675e-07
8.308434103e-08
-1.985381778e-07
9.652184869e-08
-2.08143358e-07
1.103377294e-07
-2.155398195e-07
1.243644263e-07
-2.206691087e-07
1.384306737e-07
-2.235009838e-07
1.523633935e-07
-2.240352066e-07
1.659899566e-07
-2.223033263e-07
1.791407681e-07
-2.183701098e-07
1.916521887e-07
-2.123345487e-07
2.033697346e-07
-2.043301867e-07
2.141512105e-07
-1.945239279e-07
2.238696664e-07
-1.831139169e-07
2.324158609e-07
-1.703259643e-07
2.396999734e-07
-1.5640882e-07
2.456525746e-07
-1.416291092e-07
2.50224829e-07
-1.262660569e-07
2.533880538e-07
-1.106065361e-07
2.551328386e-07
-9.494082815e-08
2.554680153e-07
-7.955900831e-08
2.54419595e-07
-6.474871162e-08
2.520294808e-07
-5.078833045e-08
2.483553184e-07
-3.796490494e-08
2.434649259e-07
-2.648214648e-08
2.374563606e-07
-1.683542249e-08
2.30366241e-07
-8.212861303e-09
2.225193412e-07
-5.667167892e-09
2.127432698e-07
1.549417958e-08
2.083307601e-07
-7.307457134e-08
1.46217058e-07
5.051312555e-07
4.565339895e-06
8.068553951e-10
-1.233470895e-08
3.236844705e-09
-3.708399875e-08
7.265915398e-09
-6.150331955e-08
1.284304459e-08
-8.525471257e-08
1.98967718e-08
-1.080621833e-07
2.833683298e-08
-1.296659649e-07
3.805627606e-08
-1.498258839e-07
4.893310391e-08
-1.68323848e-07
6.083207188e-08
-1.849663532e-07
7.360699593e-08
-1.995842913e-07
8.710194612e-08
-2.120331276e-07
1.011525824e-07
-2.221939937e-07
1.155873909e-07
-2.299746274e-07
1.302290066e-07
-2.353107235e-07
1.448957675e-07
-2.381677437e-07
1.594036293e-07
-2.385430672e-07
1.735685387e-07
-2.364682345e-07
1.872092122e-07
-2.320107819e-07
2.001503687e-07
-2.252757037e-07
2.12226371e-07
-2.164061873e-07
2.232848241e-07
-2.055823793e-07
2.331900036e-07
-1.930190945e-07
2.418256908e-07
-1.789616495e-07
2.490970743e-07
-1.636802012e-07
2.549317406e-07
-1.474637731e-07
2.592797364e-07
-1.306140501e-07
2.621128922e-07
-1.13439689e-07
2.634236577e-07
-9.625159064e-08
2.632238073e-07
-7.935915454e-08
2.615432116e-07
-6.306811234e-08
2.58428676e-07
-4.767379116e-08
2.539435474e-07
-3.34797723e-08
2.481629108e-07
-2.07015056e-08
2.411900621e-07
-9.862569306e-09
2.330822279e-07
-1.050224399e-10
2.241863457e-07
3.228719224e-09
2.136413782e-07
2.603915218e-08
2.072093322e-07
-6.663490856e-08
1.434623602e-07
5.690556202e-07
4.725640235e-06
8.487266905e-10
-1.318343568e-08
3.405615243e-09
-3.964088736e-08
7.644664494e-09
-6.574236886e-08
1.351068643e-08
-9.112073456e-08
2.092679103e-08
-1.154782879e-07
2.979621886e-08
-1.385353927e-07
4.000447361e-08
-1.600341385e-07
5.142170405e-08
-1.797410782e-07
6.390435064e-08
-1.974489995e-07
7.729752514e-08
-2.129774653e-07
9.143641769e-08
-2.261720195e-07
1.061474487e-07
-2.369050239e-07
1.21249366e-07
-2.450765437e-07
1.365544354e-07
-2.506157918e-07
1.51869916e-07
-2.534832231e-07
1.669999644e-07
-2.536731142e-07
1.817481135e-07
-2.512163822e-07
1.959202669e-07
-2.461829337e-07
2.09328298e-07
-2.386837332e-07