/*--------------------------------*- C++ -*----------------------------------*\
| =========                 |                                                 |
| \\      /  F ield         | OpenFOAM: The Open Source CFD Toolbox           |
|  \\    /   O peration     | Version:  v1912                                 |
|   \\  /    A nd           | Website:  www.openfoam.com                      |
|    \\/     M anipulation  |                                                 |
\*---------------------------------------------------------------------------*/
FoamFile
{
    version     2.0;
    format      ascii;
    class       surfaceScalarField;
    location    "1";
    object      phi.gas;
}
// * * * * * * * * * * * * * * * * * * * * * * * * * * * * * * * * * * * * * //

dimensions      [0 3 -1 0 0 0 0];
oriented        oriented;


internalField   nonuniform List<scalar> 
9440
(
4.129224818e-10
7.147516363e-09
1.682874301e-09
2.141196327e-08
3.799115887e-09
3.568712821e-08
6.738110137e-09
4.998559604e-08
1.046919334e-08
6.431462412e-08
1.495352669e-08
7.868229254e-08
2.014469479e-08
9.309612386e-08
2.598911692e-08
1.075632526e-07
3.242692054e-08
1.220899446e-07
3.939276793e-08
1.366816466e-07
4.681671831e-08
1.513429514e-07
5.46251903e-08
1.660774982e-07
6.274198868e-08
1.808879082e-07
7.108938154e-08
1.95775733e-07
7.958921756e-08
2.107414142e-07
8.816407221e-08
2.257842533e-07
9.673841186e-08
2.409023927e-07
1.052397644e-07
2.560928076e-07
1.135998853e-07
2.713513095e-07
1.217559102e-07
2.866725583e-07
1.29651483e-07
3.020500849e-07
1.372378481e-07
3.17476327e-07
1.444748704e-07
3.329427072e-07
1.513319119e-07
3.484398662e-07
1.577886518e-07
3.639572527e-07
1.638428029e-07
3.794772691e-07
1.695012529e-07
3.949900274e-07
1.7478218e-07
4.104849906e-07
1.797248123e-07
4.259408407e-07
1.843887504e-07
4.41337227e-07
1.888593971e-07
4.566484954e-07
1.932465654e-07
4.718499047e-07
1.977426521e-07
4.868598241e-07
2.024843642e-07
5.01730792e-07
2.082757442e-07
5.158058958e-07
2.139332588e-07
5.310366497e-07
2.269171906e-07
5.389337269e-07
2.211203469e-07
5.722927784e-07
3.556148139e-07
4.234429246e-07
9.453684292e-07
4.438322922e-10
6.188802591e-09
1.780549497e-09
1.853137976e-08
4.002692775e-09
3.089192617e-08
7.088347806e-09
4.329748656e-08
1.10066037e-08
5.576442106e-08
1.571821609e-08
6.830906938e-08
2.117609787e-08
8.09467635e-08
2.732595722e-08
9.369182048e-08
3.410720757e-08
1.065567916e-07
4.145364027e-08
1.195527379e-07
4.929433855e-08
1.326889587e-07
5.755464603e-08
1.459728371e-07
6.61571953e-08
1.594097152e-07
7.502298771e-08
1.730027913e-07
8.407251466e-08
1.867530367e-07
9.322690981e-08
2.006591342e-07
1.024091214e-07
2.147174383e-07
1.115450937e-07
2.289219571e-07
1.205649464e-07
2.432643563e-07
1.294041429e-07
2.577339833e-07
1.380046376e-07
2.723179088e-07
1.463160029e-07
2.870009848e-07
1.542965755e-07
3.017659078e-07
1.619148726e-07
3.165931829e-07
1.691512013e-07
3.314604304e-07
1.75995422e-07
3.463399945e-07
1.824545947e-07
3.612060484e-07
1.885486418e-07
3.760341995e-07
1.943136583e-07
3.907872698e-07
1.998067413e-07
4.054238707e-07
2.051095557e-07
4.1989388e-07
2.103330742e-07
4.341430647e-07
2.156394244e-07
4.480386053e-07
2.211829944e-07
4.616410274e-07
2.27450049e-07
4.739641264e-07
2.340198467e-07
4.878499005e-07
2.465192897e-07
4.88826133e-07
2.455543082e-07
5.337095908e-07
2.848153968e-07
3.310411228e-07
1.222362268e-06
4.483248938e-10
5.771551535e-09
1.794674031e-09
1.727937089e-08
4.029754595e-09
2.881409347e-08
7.132520718e-09
4.041472243e-08
1.107228266e-08
5.210734155e-08
1.580970016e-08
6.391685879e-08
2.129752247e-08
7.586648391e-08
2.748136921e-08
8.797764484e-08
3.430027834e-08
1.002694569e-07
4.168765702e-08
1.127586012e-07
4.957217485e-08
1.254591102e-07
5.787873432e-08
1.38382136e-07
6.652950292e-08
1.51535763e-07
7.54449974e-08
1.649248531e-07
8.454520939e-08
1.785509206e-07
9.375076171e-08
1.92412039e-07
1.029840843e-07
2.065027806e-07
1.121705987e-07
2.208141896e-07
1.212399004e-07
2.353337873e-07
1.301269295e-07
2.50045606e-07
1.387731278e-07
2.64930246e-07
1.471275906e-07
2.799649357e-07
1.551482594e-07
2.951235521e-07
1.628032072e-07
3.103764792e-07
1.700716731e-07
3.256901352e-07
1.769430839e-07
3.410265717e-07
1.834205877e-07
3.563466047e-07
1.895238696e-07
3.716093595e-07
1.95286518e-07
3.86763286e-07
2.007608778e-07
4.01748549e-07
2.060212317e-07
4.164931025e-07
2.11168673e-07
4.309158043e-07
2.163316481e-07
4.448562906e-07
2.216558499e-07
4.583590211e-07
2.274455804e-07
4.702770964e-07
2.33459619e-07
4.839958889e-07
2.422965969e-07
4.822246032e-07
2.425841322e-07
5.344200661e-07
2.431443178e-07
3.141077881e-07
1.500510153e-06
4.530240158e-10
5.317168103e-09
1.812599084e-09
1.591718856e-08
4.067823201e-09
2.655448532e-08
7.197512778e-09
3.727873828e-08
1.117084182e-08
4.812573691e-08
1.594810306e-08
5.912918301e-08
2.148152897e-08
7.032031219e-08
2.771601407e-08
8.172786626e-08
3.458983459e-08
9.337756374e-08
4.203551715e-08
1.052918238e-07
4.998076973e-08
1.174894928e-07
5.8349465e-08
1.299855597e-07
6.706268483e-08
1.427909072e-07
7.603981644e-08
1.559121053e-07
8.519968978e-08
1.693512438e-07
9.446174586e-08
1.831058076e-07
1.03747225e-07
1.971685961e-07
1.129803637e-07
2.11527686e-07
1.220895892e-07
2.261664379e-07
1.310087047e-07
2.410635396e-07
1.396780586e-07
2.561930759e-07
1.48045703e-07
2.715245989e-07
1.560685384e-07
2.870231574e-07
1.637133716e-07
3.02649235e-07
1.709576273e-07
3.183586265e-07
1.777895033e-07
3.34102617e-07
1.842101397e-07
3.498292059e-07
1.902362655e-07
3.654820992e-07
1.958985419e-07
3.809954296e-07
2.012437489e-07
3.962933868e-07
2.063376069e-07
4.112850558e-07
2.112660546e-07
4.258690035e-07
2.161323607e-07
4.398674159e-07
2.210524083e-07
4.533131962e-07
2.261474e-07
4.650509835e-07
2.313388228e-07
4.786707325e-07
2.367925503e-07
4.766350384e-07
2.346561654e-07
5.313931081e-07
2.203486244e-07
3.089123839e-07
1.759083012e-06
4.586424011e-10
4.859008307e-09
1.835091963e-09
1.45440298e-08
4.117316515e-09
2.427765374e-08
7.283617001e-09
3.411981675e-08
1.130273351e-08
4.411591605e-08
1.613435183e-08
5.430861616e-08
2.172993148e-08
6.473734453e-08
2.803340666e-08
7.543834288e-08
3.498197369e-08
8.644405217e-08
4.250695627e-08
9.778275255e-08
5.053474995e-08
1.094782136e-07
5.898782478e-08
1.215493512e-07
6.778578576e-08
1.34009921e-07
7.684648455e-08
1.468682596e-07
8.608717291e-08
1.601270753e-07
9.542568756e-08
1.737832912e-07
1.047816554e-07
1.878279428e-07
1.140777072e-07
2.022461319e-07
1.23240689e-07
2.170170344e-07
1.322028592e-07
2.321139565e-07
1.409030606e-07
2.475044274e-07
1.492878546e-07
2.631503063e-07
1.573125844e-07
2.790078799e-07
1.649422995e-07
2.950279403e-07
1.721524535e-07
3.111558922e-07
1.789295431e-07
3.273320053e-07
1.852726673e-07
3.43491739e-07
1.911950641e-07
3.595646919e-07
1.967236561e-07
3.754712834e-07
2.018994807e-07
3.911214804e-07
2.067785679e-07
4.064094752e-07
2.114312576e-07
4.212194619e-07
2.159382754e-07
4.353631991e-07
2.20393303e-07
4.488615331e-07
2.247824596e-07
4.606634809e-07
2.292820543e-07
4.741758514e-07
2.327188206e-07
4.731955177e-07
2.291422808e-07
5.28083889e-07
2.055021067e-07
3.156936329e-07
2.006104195e-06
4.654150915e-10
4.393869064e-09
1.862606169e-09
1.314990607e-08
4.178697499e-09
2.196653031e-08
7.391321504e-09
3.091396271e-08
1.146853395e-08
4.004720667e-08
1.636916943e-08
4.941805193e-08
2.204365354e-08
5.907430054e-08
2.843469284e-08
6.905988598e-08
3.547809405e-08
7.941413333e-08
4.310364578e-08
9.017132888e-08
5.12360776e-08
1.01360296e-07
5.979608278e-08
1.130039884e-07
6.870139831e-08
1.251191257e-07
7.786793607e-08
1.377158833e-07
8.721095633e-08
1.507976401e-07
9.664627338e-08
1.643607883e-07
1.060914819e-07
1.783946099e-07
1.154671917e-07
1.928812213e-07
1.246982559e-07
2.077955851e-07
1.337149794e-07
2.231055871e-07
1.424542866e-07
2.387721657e-07
1.508608275e-07
2.547494813e-07
1.588879863e-07
2.709851096e-07
1.664987603e-07
2.874202502e-07
1.736665094e-07
3.039899677e-07
1.803757159e-07
3.206234368e-07
1.86623081e-07
3.372439332e-07
1.924184039e-07
3.537679757e-07
1.977842788e-07
3.701031625e-07
2.027560359e-07
3.861467071e-07
2.073808051e-07
4.017810038e-07
2.117163588e-07
4.168795859e-07
2.158224231e-07
4.312522334e-07
2.197831676e-07
4.448961652e-07
2.235212128e-07
4.569187041e-07
2.27458802e-07
4.702360843e-07
2.297599736e-07
4.708743303e-07
2.329367941e-07
5.220878264e-07
1.986242517e-07
3.299156296e-07
2.243705903e-06
4.734813004e-10
3.920575661e-09
1.89549475e-09
1.173112149e-08
4.252465314e-09
1.961474267e-08
7.521276937e-09
2.765220783e-08
1.166909994e-08
3.590824489e-08
1.665368055e-08
4.444396685e-08
2.242414777e-08
5.331575889e-08
2.892169808e-08
6.257545751e-08
3.608043606e-08
7.226946372e-08
4.382827631e-08
8.243824135e-08
5.208792199e-08
9.311581977e-08
6.077790921e-08
1.043293211e-07
6.981370966e-08
1.160985372e-07
7.910888485e-08
1.284355676e-07
8.85762834e-08
1.41344523e-07
9.812927151e-08
1.548213021e-07
1.076829846e-07
1.688534449e-07
1.171555858e-07
1.834200697e-07
1.264695154e-07
1.984918935e-07
1.355527113e-07
2.140313358e-07
1.443397777e-07
2.299926988e-07
1.527730768e-07
2.463224136e-07
1.608037163e-07
2.629593369e-07
1.683924182e-07
2.798350788e-07
1.755102906e-07
2.96874342e-07
1.821395537e-07
3.139952141e-07
1.882742897e-07
3.311091327e-07
1.939209236e-07
3.481202857e-07
1.990978925e-07
3.649242521e-07
2.038350733e-07
3.814067773e-07
2.08172275e-07
3.974403386e-07
2.12157642e-07
4.128901273e-07
2.158361415e-07
4.275690643e-07
2.192871003e-07
4.414407141e-07
2.224103291e-07
4.537888626e-07
2.257474998e-07
4.668993409e-07
2.271938586e-07
4.694015913e-07
2.297735087e-07
5.116670224e-07
1.848622551e-07
3.522189756e-07
2.473121518e-06
4.829298375e-10
3.437734207e-09
1.934038468e-09
1.02834022e-08
4.339107256e-09
1.721506745e-08
7.674203684e-09
2.432444813e-08
1.190543956e-08
3.168621867e-08
1.698924444e-08
3.937106794e-08
2.287318619e-08
4.744420912e-08
2.94966604e-08
5.596561894e-08
3.679175057e-08
6.498899425e-08
4.468415186e-08
7.456117427e-08
5.30941731e-08
8.472156898e-08
6.193780558e-08
9.550161922e-08
7.112785108e-08
1.069243144e-07
8.057510221e-08
1.190037772e-07
9.018956723e-08
1.317449223e-07
9.988172934e-08
1.451431976e-07
1.095638278e-07
1.591844149e-07
1.191511454e-07
1.738446795e-07
1.285632838e-07
1.89090422e-07
1.377254038e-07
2.048785351e-07
1.46569406e-07
2.211566134e-07
1.550350258e-07
2.378632836e-07
1.630708201e-07
2.549286102e-07
1.706350338e-07
2.722745424e-07
1.776963615e-07
2.898153581e-07
1.842346008e-07
3.074580654e-07
1.902411493e-07
3.251025203e-07
1.957192212e-07
3.426411037e-07
2.006834701e-07
3.599579572e-07
2.051590467e-07
3.769283118e-07
2.091799297e-07
3.934157992e-07
2.127873418e-07
4.092784084e-07
2.160171434e-07
4.243343589e-07
2.189426977e-07
4.385103558e-07
2.214719342e-07
4.512525528e-07
2.242061555e-07
4.641657941e-07
2.245952586e-07
4.689832369e-07
2.22915996e-07
5.007740311e-07
1.720716821e-07
3.825375008e-07
2.694617604e-06
4.938311154e-10
2.943886912e-09
1.978493229e-09
8.802314136e-09
4.439126884e-09
1.476007488e-08
7.850906707e-09
2.092033555e-08
1.217872339e-08
2.736802391e-08
1.737746689e-08
3.418371673e-08
2.339287599e-08
4.144174518e-08
3.016224799e-08
4.921049253e-08
3.761531902e-08
5.755120025e-08
4.567521176e-08
6.651730755e-08
5.425946479e-08
7.615380239e-08
6.328112871e-08
8.649661478e-08
7.264992204e-08
9.757207422e-08
8.22734408e-08
1.093964401e-07
9.205841431e-08
1.219755139e-07
1.019119974e-07
1.353043426e-07
1.117430861e-07
1.493670256e-07
1.214636409e-07
1.641366355e-07
1.309899953e-07
1.795752628e-07
1.40244127e-07
1.956341908e-07
1.491548633e-07
2.122541983e-07
1.576589947e-07
2.293659814e-07
1.657022735e-07
2.468906742e-07
1.732402794e-07
2.647404272e-07
1.802391537e-07
2.828189829e-07
1.866761853e-07
3.010222237e-07
1.925401382e-07
3.192385475e-07
1.978312696e-07
3.373488514e-07
2.025608864e-07
3.55226227e-07
2.067503938e-07
3.727358139e-07
2.104293082e-07
3.897330992e-07
2.136340479e-07
4.060691957e-07
2.16395304e-07
4.215680078e-07
2.18779753e-07
4.361208907e-07
2.207008019e-07
4.493242122e-07
2.228094111e-07
4.620570279e-07
2.222040934e-07
4.695583996e-07
2.165745714e-07
4.917208018e-07
1.624978371e-07
4.164762904e-07
2.908888941e-06
5.06250117e-10
2.437509195e-09
2.029113955e-09
7.283234314e-09
4.553061778e-09
1.224205331e-08
8.052285247e-09
1.742916118e-08
1.249029071e-08
2.294011729e-08
1.782020634e-08
2.886575634e-08
2.398566744e-08
3.528986985e-08
3.092156902e-08
4.228954302e-08
3.855496531e-08
4.993384139e-08
4.680604485e-08
5.828305569e-08
5.558919123e-08
6.738797243e-08
6.481410927e-08
7.728920141e-08
7.438701133e-08
8.80165727e-08
8.421185883e-08
9.958861126e-08
9.419165229e-08
1.120120998e-07
1.042297612e-07
1.25281742e-07
1.142312804e-07
1.393799414e-07
1.241043963e-07
1.542767119e-07
1.337617395e-07
1.699297348e-07
1.431216981e-07
1.862845719e-07
1.521096617e-07
2.032750364e-07
1.606591671e-07
2.208237128e-07
1.687129176e-07
2.388426014e-07
1.76223653e-07
2.572338472e-07
1.831548528e-07
2.758904793e-07
1.894812657e-07
2.946971339e-07
1.951891419e-07
3.135307235e-07
2.002761033e-07
3.322607832e-07
2.047506451e-07
3.507495335e-07
2.086312314e-07
3.688521445e-07
2.119442941e-07
3.864161392e-07
2.147234473e-07
4.032854513e-07
2.169974208e-07
4.192887782e-07
2.188269053e-07
4.34286088e-07
2.201145827e-07
4.480291605e-07
2.213965098e-07
4.607778621e-07
2.201194173e-07
4.708038496e-07
2.116035714e-07
4.833862559e-07
1.538650425e-07
4.539927611e-07
3.116821596e-06
5.202527951e-10
1.917009052e-09
2.086169034e-09
5.721340084e-09
4.6814982e-09
9.652976972e-09
8.27934447e-09
1.383980212e-08
1.284165938e-08
1.838844886e-08
1.831958402e-08
2.340043374e-08
2.465436544e-08
2.896941032e-08
3.177818503e-08
3.518148747e-08
3.961507114e-08
4.211386678e-08
4.808190679e-08
4.983396944e-08
5.708952611e-08
5.839862411e-08
6.654387318e-08
6.785333158e-08
7.634722084e-08
7.823160139e-08
8.639944644e-08
8.955436895e-08
9.659935965e-08
1.018295056e-07
1.068460745e-07
1.150514372e-07
1.170404132e-07
1.292008894e-07
1.270863247e-07
1.442447843e-07
1.368922917e-07
1.601363055e-07
1.463727005e-07
1.768151497e-07
1.554491363e-07
1.942079695e-07
1.640515734e-07
2.122289977e-07
1.721194259e-07
2.307808303e-07
1.796024296e-07
2.497553231e-07
1.864613241e-07
2.690345297e-07
1.926683261e-07
2.88491632e-07
1.982073233e-07
3.079918892e-07
2.030736614e-07
3.273933884e-07
2.072735852e-07
3.465474548e-07
2.108234019e-07
3.65299197e-07
2.137474853e-07
3.83488061e-07
2.16078155e-07
4.009500832e-07
2.178448051e-07
4.175167474e-07
2.191037642e-07
4.330217342e-07
2.197827361e-07
4.473426079e-07
2.204671493e-07
4.600945404e-07
2.184210418e-07
4.72818381e-07
2.070542218e-07
4.759993989e-07
1.460988036e-07
4.946538411e-07
3.318992601e-06
5.359094806e-10
1.380722492e-09
2.149949492e-09
4.111591151e-09
4.825082965e-09
6.984468462e-09
8.53320774e-09
1.014066444e-08
1.32345381e-08
1.36983901e-08
1.887799677e-08
1.777031569e-08
2.540214409e-08
2.246042553e-08
3.273612797e-08
2.786419494e-08
4.080059545e-08
3.406730912e-08
4.950874164e-08
4.114462562e-08
5.87674464e-08
4.915928121e-08
6.847846763e-08
5.816189956e-08
7.853969411e-08
6.818986772e-08
8.884645748e-08
7.926669362e-08
9.92929006e-08
9.140145909e-08
1.097733968e-07
1.045883866e-07
1.201840087e-07
1.188065449e-07
1.304239677e-07
1.340197227e-07
1.4039715e-07
1.50176498e-07
1.500135141e-07
1.672105251e-07
1.591904645e-07
1.850410519e-07
1.678540989e-07
2.03573658e-07
1.759403018e-07
2.227011905e-07
1.833956486e-07
2.42304849e-07
1.901780795e-07
2.622553526e-07
1.962573231e-07
2.824141189e-07
2.016150683e-07
3.026344657e-07
2.062447433e-07
3.227627522e-07
2.101508975e-07
3.426391875e-07
2.133483834e-07
3.620985801e-07
2.15860477e-07
3.809719385e-07
2.177192071e-07
3.990865901e-07
2.189552016e-07
4.162752568e-07
2.196289323e-07
4.323425717e-07
2.196941364e-07
4.472698618e-07
2.197334504e-07
4.600541377e-07
2.170517721e-07
4.754678875e-07
2.035326029e-07
4.689448218e-07
1.389068478e-07
5.389173636e-07
3.515809038e-06
5.532969613e-10
8.269069027e-10
2.220775382e-09
2.448707445e-09
4.984533477e-09
4.227757846e-09
8.815129585e-09
6.319623511e-09
1.367084073e-08
8.854661046e-09
1.949813236e-08
1.195720427e-08
2.623256469e-08
1.574211132e-08
3.37999215e-08
2.031458359e-08
4.211709795e-08
2.576917735e-08
5.109320753e-08
3.218851552e-08
6.063076023e-08
3.964233098e-08
7.062689138e-08
4.818662288e-08
8.097464955e-08
5.786287371e-08
9.156434577e-08
6.869734475e-08
1.02284965e-07
8.070046631e-08
1.130256373e-07
9.386634404e-08
1.236771587e-07
1.081724143e-07
1.341335435e-07
1.235792849e-07
1.442935809e-07
1.400308002e-07
1.540623579e-07
1.574543593e-07
1.633527051e-07
1.757615103e-07
1.720865182e-07
1.948488111e-07
1.801959071e-07
2.14598935e-07
1.876241334e-07
2.348819677e-07
1.943262874e-07
2.555568318e-07
2.0026968e-07
2.764727509e-07
2.054339814e-07
2.974707033e-07
2.09811032e-07
3.183848918e-07
2.134041869e-07
3.390440167e-07
2.162274709e-07
3.592722219e-07
2.183038832e-07
3.788915251e-07
2.196661274e-07
3.977196078e-07
2.20346504e-07
4.155893831e-07
2.204082283e-07
4.322754855e-07
2.198122805e-07
4.478584516e-07
2.191105691e-07
4.607548734e-07
2.158922436e-07
4.786556911e-07
2.001218539e-07
4.622198505e-07
1.322578366e-07
5.863478193e-07
3.707768043e-06
5.725000065e-10
2.53732866e-10
2.299000954e-09
7.271434192e-10
5.160646336e-09
1.373638376e-09
9.126508853e-09
2.363959853e-09
1.415270334e-08
3.841253374e-09
2.018298676e-08
5.942052619e-09
2.714959923e-08
8.79269959e-09
3.49746068e-08
1.250851548e-08
4.357076694e-08
1.719334729e-08
5.284270658e-08
2.293793148e-08
6.268813898e-08
2.981890685e-08
7.299912937e-08
3.789792149e-08
8.366341792e-08
4.722079188e-08
9.456580629e-08
5.781673421e-08
1.055896136e-07
6.969768451e-08
1.166182038e-07
8.28577331e-08
1.275365762e-07
9.727271562e-08
1.382330026e-07
1.129000076e-07
1.486006782e-07
1.296785725e-07
1.585393489e-07
1.475293052e-07
1.679568565e-07
1.663557044e-07
1.767705517e-07
1.860448658e-07
1.849085157e-07
2.064687761e-07
1.9231054e-07
2.274858518e-07
1.989288185e-07
2.489426481e-07
2.047283306e-07
2.706756323e-07
2.096869325e-07
2.925129278e-07
2.137951736e-07
3.142760592e-07
2.17055656e-07
3.357816818e-07
2.194821723e-07
3.568427563e-07
2.210981109e-07
3.772716852e-07
2.219375273e-07
3.968755546e-07
2.220349582e-07
4.154865402e-07
2.214567432e-07
4.328484885e-07
2.201675607e-07
4.491405053e-07
2.18696678e-07
4.62224295e-07
2.147497785e-07
4.825708475e-07
1.962290942e-07
4.56349111e-07
1.261794306e-07
6.358991246e-07
3.895326897e-06
5.936127296e-10
-3.40725419e-10
2.385019628e-09
-1.058941179e-09
5.354306329e-09
-1.587581583e-09
9.468902936e-09
-1.739710885e-09
1.468250639e-08
-1.35865309e-09
2.093588221e-08
-2.951145727e-10
2.815765904e-08
1.589345894e-09
3.626577278e-08
4.420690222e-09
4.516845171e-08
8.312450511e-09
5.47654194e-08
1.336385142e-08
6.494915391e-08
1.965876925e-08
7.560619174e-08
2.726479464e-08
8.661848451e-08
3.623233831e-08
9.786482121e-08
4.6593796e-08
1.092223288e-07
5.836278985e-08
1.205680592e-07
7.153351585e-08
1.317806576e-07
8.60802527e-08
1.427420954e-07
1.019570915e-07
1.533394345e-07
1.190979513e-07
1.634665766e-07
1.37416936e-07
1.730259313e-07
1.568090867e-07
1.819299401e-07
1.771515178e-07
1.901023863e-07
1.983049224e-07
1.974794287e-07
2.20115386e-07
2.040103223e-07
2.424164061e-07
2.096578062e-07
2.650309983e-07
2.143981488e-07
2.877737808e-07
2.182209123e-07
3.104530015e-07
2.211283595e-07
3.328726237e-07
2.231346058e-07
3.548337647e-07
2.242640477e-07
3.761385233e-07
2.245524528e-07
3.965826995e-07
2.240366216e-07
4.159971212e-07
2.227888496e-07
4.340912576e-07
2.207753809e-07
4.511468411e-07
2.184844441e-07
4.645135254e-07
2.137362397e-07
4.872830798e-07
1.92352504e-07
4.515318622e-07
1.204363984e-07
6.872894723e-07
4.078720992e-06
6.167399981e-10
-9.585011668e-10
2.479269468e-09
-2.915714491e-09
5.566496379e-09
-4.66613109e-09
9.844020645e-09
-6.005488631e-09
1.526288352e-08
-6.762791042e-09
2.176052988e-08
-6.775337281e-09
2.926162829e-08
-5.891950795e-09
3.76795912e-08
-3.975462989e-09
4.691770034e-08
-9.02239424e-10
5.687034464e-08
3.435821976e-09
6.742431734e-08
9.130184973e-09
7.846015726e-08
1.625469592e-08
8.985353568e-08
2.486464274e-08
1.014767109e-07
3.499585186e-08
1.132000715e-07
4.666383995e-08
1.248937853e-07
5.986305549e-08
1.364295535e-07
7.456628214e-08
1.476824521e-07
9.072427985e-08
1.585328278e-07
1.082657458e-07
1.688681949e-07
1.270976688e-07
1.785850506e-07
1.471061614e-07
1.87590535e-07
1.681577502e-07
1.95803848e-07
1.901011215e-07
2.03157349e-07
2.127692499e-07
2.095973162e-07
2.359817572e-07
2.1508434e-07
2.595473822e-07
2.195933346e-07
2.832664465e-07
2.231132241e-07
3.069332072e-07
2.256463446e-07
3.303382249e-07
2.272076311e-07
3.532700287e-07
2.278230691e-07
3.755196402e-07
2.275306986e-07
3.96870901e-07
2.263703411e-07
4.171524787e-07
2.244192698e-07
4.360376535e-07
2.216452286e-07
4.539143438e-07
2.185146343e-07
4.676424394e-07
2.130363356e-07
4.927149755e-07
1.889041435e-07
4.478641341e-07
1.150213282e-07
7.405726613e-07
4.258194668e-06
6.419989148e-10
-1.60174755e-09
2.582239366e-09
-4.849710317e-09
5.798313201e-09
-7.872838436e-09
1.0253782e-08
-1.044828507e-08
1.589675695e-08
-1.238988164e-08
2.26610135e-08
-1.352080089e-08
3.04668938e-08
-1.367647628e-08
3.922285581e-08
-1.270790234e-08
4.882680249e-08
-1.048092395e-08
5.916734386e-08
-6.878160187e-09
7.012512922e-08
-1.800194743e-09
8.157422155e-08
4.833406708e-09
9.338350996e-08
1.308311625e-08
1.054181896e-07
2.298847252e-08
1.175413433e-07
3.456713005e-08
1.29615654e-07
4.781397046e-08
1.415052507e-07
6.270037077e-08
1.53077674e-07
7.91737256e-08
1.642059239e-07
9.715732446e-08
1.747705335e-07
1.165506796e-07
1.84661561e-07
1.372304373e-07
1.93780417e-07
1.590518323e-07
2.020414116e-07
1.818507094e-07
2.093729403e-07
2.054460124e-07
2.157182767e-07
2.29642532e-07
2.210359622e-07
2.542337796e-07
2.252997866e-07
2.790048577e-07
2.284984073e-07
3.037351777e-07
2.306346815e-07
3.282011105e-07
2.31724862e-07
3.521778003e-07
2.317970865e-07
3.754443536e-07
2.308922378e-07
3.977719712e-07
2.290539127e-07
4.189861705e-07
2.263640887e-07
4.387232713e-07
2.227970262e-07
4.574753908e-07
2.187959223e-07
4.716414182e-07
2.125792332e-07
4.988762453e-07
1.856741585e-07
4.4536357e-07
1.098821348e-07
7.957236309e-07
4.434029254e-06
6.695204722e-10
-2.272751948e-09
2.69447559e-09
-6.867870608e-09
6.05097987e-09
-1.121919873e-08
1.070032171e-08
-1.508391034e-08
1.658736879e-08
-1.825973734e-08
2.364184611e-08
-2.055494318e-08
3.177938759e-08
-2.179091475e-08
4.090302608e-08
-2.18060911e-08
5.09048376e-08
-2.045540079e-08
6.16671946e-08
-1.761177175e-08
7.306413167e-08
-1.316745753e-08
8.496275238e-08
-7.035090583e-09
9.722465497e-08
8.513174348e-10
1.097074264e-07
1.053533531e-08
1.222662553e-07
2.203704228e-08
1.347557055e-07
3.535197873e-08
1.470316629e-07
5.045024077e-08
1.58953439e-07
6.727584617e-08
1.70385995e-07
8.574648927e-08
1.812022282e-07
1.057538073e-07
1.912851755e-07
1.271643711e-07
2.00530044e-07
1.498213116e-07
2.088459231e-07
1.73546656e-07
2.161570735e-07
1.981442372e-07
2.224037546e-07
2.234029002e-07
2.275425841e-07
2.490998428e-07
2.315464708e-07
2.750039098e-07
2.344041739e-07
3.00878685e-07
2.361195547e-07
3.26485449e-07
2.367107143e-07
3.515851165e-07
2.362085192e-07
3.759439936e-07
2.34657235e-07
3.99319996e-07
2.321050136e-07
4.21534259e-07
2.28637956e-07
4.4218675e-07
2.242402264e-07
4.618677648e-07
2.193324085e-07
4.765476538e-07
2.122411803e-07
5.058695052e-07
1.825577478e-07
4.44013006e-07
1.05014771e-07
8.527121912e-07
4.606432168e-06
6.99452096e-10
-2.973952814e-09
2.816591142e-09
-8.977594598e-09
6.325863114e-09
-1.47174492e-08
1.118601766e-08
-1.992917065e-08
1.733832433e-08
-2.439337948e-08
2.470802043e-08
-2.790256851e-08
3.320563431e-08
-3.026345841e-08
4.272827791e-08
-3.130111837e-08
5.316173789e-08
-3.085919732e-08
6.438165508e-08
-2.880048742e-08
7.625497457e-08
-2.500855358e-08
8.864135617e-08
-1.938873997e-08
1.013945956e-07
-1.18691825e-08
1.143641169e-07
-2.401921217e-09
1.273966049e-07
9.035889222e-09
1.403378362e-07
2.244073228e-08
1.530347332e-07
3.778160094e-08
1.653376206e-07
5.499916103e-08
1.771026563e-07
7.400533233e-08
1.881943723e-07
9.468344327e-08
1.984881343e-07
1.168893016e-07
2.07872421e-07
1.40452998e-07
2.162507387e-07
1.651816047e-07
2.235430287e-07
1.908625874e-07
2.296865378e-07
2.172675451e-07
2.3463613e-07
2.441561083e-07
2.383641189e-07
2.712797091e-07
2.408597449e-07
2.983850305e-07
2.421283538e-07
3.25217259e-07
2.42190451e-07
3.515221599e-07
2.410802618e-07
3.770522789e-07
2.388460849e-07
4.015515805e-07
2.355418326e-07
4.248350316e-07
2.312559798e-07
4.464698068e-07
2.259852156e-07
4.671339973e-07
2.201363647e-07
4.823956309e-07
2.120697576e-07
5.137661638e-07
1.796278313e-07
4.438769121e-07
1.003857251e-07
9.115200295e-07
4.775577202e-06
7.31961299e-10
-3.707960287e-09
2.949278924e-09
-1.118679726e-08
6.62449848e-09
-1.838065626e-08
1.171352123e-08
-2.500197045e-08
1.815363997e-08
-3.081317404e-08
2.586508299e-08
-3.558998651e-08
3.475280566e-08
-3.912389659e-08
4.470759481e-08
-4.122585723e-08
5.560836424e-08
-4.172768786e-08
6.73235353e-08
-4.048169938e-08
7.971248858e-08
-3.736242092e-08
9.262695633e-08
-3.226754422e-08
1.059124182e-07
-2.511894011e-08
1.19409573e-07
-1.586384785e-08
1.329559737e-07
-4.476248896e-09
1.463879057e-07
9.041642826e-09
1.595425533e-07
2.465796555e-08
1.722604248e-07
4.231011341e-08
1.843880218e-07
6.190407458e-08
1.957806906e-07
8.331440354e-08
2.063053921e-07
1.063853707e-07
2.158432891e-07
1.309329459e-07
2.24291907e-07
1.567479203e-07
2.315666753e-07
1.835999316e-07
2.376018389e-07
2.112418311e-07
2.423507138e-07
2.394142337e-07
2.457853742e-07
2.678498551e-07
2.478959657e-07
2.962773345e-07
2.486897974e-07
3.244247073e-07
2.481903223e-07
3.520216032e-07
2.464357079e-07
3.788058086e-07
2.434790463e-07
4.045064887e-07
2.393807408e-07
4.289307074e-07
2.342346892e-07
4.516140121e-07
2.280577431e-07
4.733074012e-07
2.212074437e-07
4.89246451e-07
2.120609254e-07
5.226246937e-07
1.768294306e-07
4.450350282e-07
9.595847435e-08
9.721311111e-07
4.941608774e-06
7.672382389e-10
-4.4775794e-09
3.093322075e-09
-1.350397517e-08
6.948611538e-09
-2.222281305e-08
1.228579577e-08
-3.032143171e-08
1.903774311e-08
-3.754292744e-08
2.711917497e-08
-4.364519047e-08
3.642886414e-08
-4.840380983e-08
4.685084244e-08
-5.161505194e-08
5.825657027e-08
-5.30982001e-08
7.050675947e-08
-5.269483461e-08
8.345275134e-08
-5.027011404e-08
9.693786476e-08
-4.571370209e-08
1.107987523e-07
-3.894078987e-08
1.248668193e-07
-2.989334919e-08
1.389698389e-07
-1.854170215e-08
1.529338641e-07
-4.886307241e-09
1.665855076e-07
1.104045865e-08
1.797545496e-07
2.917287646e-08
1.922768818e-07
4.941088728e-08
2.039977347e-07
7.161978385e-08
2.147748283e-07
9.563143159e-08
2.244813423e-07
1.212464312e-07
2.330083791e-07
1.482377434e-07
2.402666611e-07
1.763554724e-07
2.461874725e-07
2.05331984e-07
2.507228237e-07
2.348872297e-07
2.538449634e-07
2.647337335e-07
2.555454494e-07
2.945808555e-07
2.558340671e-07
3.241384158e-07
2.547377282e-07
3.531189254e-07
2.52299094e-07
3.812443704e-07
2.485765785e-07
4.082282958e-07
2.436379665e-07
4.338677509e-07
2.375830355e-07
4.576682627e-07
2.304452204e-07
4.804428275e-07
2.225550523e-07
4.971395016e-07
2.12263303e-07
5.324518431e-07
1.741248432e-07
4.478884887e-07
9.171964225e-08
1.034464239e-06
5.104666705e-06
8.054948027e-10
-5.285832306e-09
3.249596127e-09
-1.593827485e-08
7.300122385e-09
-2.62589386e-08
1.290612251e-08
-3.590801393e-08
1.999553355e-08
-4.460803555e-08
2.847705043e-08
-5.209799634e-08
3.824255259e-08
-5.813673447e-08
4.91687935e-08
-6.250543774e-08
6.1119239e-08
-6.501013342e-08
7.394641113e-08
-6.548148068e-08
8.74931193e-08
-6.377491881e-08
1.015938072e-07
-5.977173838e-08
1.16075801e-07
-5.337999877e-08
1.307606422e-07
-4.453586653e-08
1.454656533e-07
-3.320541845e-08
1.600058678e-07
-1.938678926e-08
1.741964231e-07
-3.11241546e-09
1.878553643e-07
1.554913175e-08
2.008069052e-07
3.649169223e-08
2.128851017e-07
5.95707995e-08
2.239374763e-07
8.46049461e-08
2.338284623e-07
1.113779232e-07
2.424422429e-07
1.39643047e-07
2.496846345e-07
1.691288866e-07
2.554840457e-07
1.995453029e-07
2.59791494e-07
2.305897095e-07
2.625798751e-07
2.61952804e-07
2.638427423e-07
2.933233214e-07
2.635929537e-07
3.243917901e-07
2.618613982e-07
3.548526946e-07
2.586957381e-07
3.84411192e-07
2.541601769e-07
4.127644254e-07
2.483297961e-07
4.396978824e-07
2.413098191e-07
4.646890654e-07
2.331537389e-07
4.885973669e-07
2.242152243e-07
5.060804015e-07
2.134626897e-07
5.430438696e-07
1.726876815e-07
4.532355765e-07
8.77402627e-08
1.098447018e-06
5.26497287e-06
8.469671246e-10
-6.135983156e-09
3.419083118e-09
-1.849957215e-08
7.68117193e-09
-3.05051888e-08
1.357813294e-08
-4.178363975e-08
2.103240741e-08
-5.203562599e-08
2.99460924e-08
-6.09801723e-08
4.020340709e-08
-6.835831948e-08
5.167314325e-08
-7.393586526e-08
6.421035193e-08
-7.750513138e-08
7.7658766e-08
-7.88854746e-08
9.185224023e-08
-7.792244695e-08
1.066159144e-07
-7.448861302e-08
1.21767317e-07
-6.848440557e-08
1.371175632e-07
-5.98395578e-08
1.524728398e-07
-4.851519245e-08
1.676363226e-07
-3.450640097e-08
1.824106779e-07
-1.784506652e-08
1.966010833e-07
1.397783333e-09
2.10018863e-07
2.310991255e-08
2.224856865e-07
4.713659793e-08
2.33837784e-07
7.328187536e-08
2.439299735e-07
1.013110632e-07
2.52638964e-07
1.309557064e-07
2.598654682e-07
1.61920484e-07
2.65535159e-07
1.938903961e-07
2.695984674e-07
2.265381786e-07
2.720295077e-07
2.595309036e-07
2.728244789e-07
2.92535256e-07
2.720000026e-07
3.252213553e-07
2.69591518e-07
3.572648703e-07
2.656521565e-07
3.883532049e-07
2.602522961e-07
4.181663957e-07
2.534750544e-07
4.464764655e-07
2.454272343e-07
4.727399845e-07
2.361729558e-07
4.978510543e-07
2.260630325e-07
5.161958185e-07
2.140964525e-07
5.545083163e-07
1.699690053e-07
4.616178628e-07
8.397057424e-08
1.163950425e-06
5.422766973e-06
8.919369391e-10
-7.031584822e-09
3.60293737e-09
-2.119859575e-08
8.094234074e-09
-3.497901349e-08
1.430596335e-08