/*--------------------------------*- C++ -*----------------------------------*\
| =========                 |                                                 |
| \\      /  F ield         | OpenFOAM: The Open Source CFD Toolbox           |
|  \\    /   O peration     | Version:  v1912                                 |
|   \\  /    A nd           | Website:  www.openfoam.com                      |
|    \\/     M anipulation  |                                                 |
\*---------------------------------------------------------------------------*/
FoamFile
{
    version     2.0;
    format      ascii;
    class       volScalarField;
    location    "1";
    object      T.gas;
}
// * * * * * * * * * * * * * * * * * * * * * * * * * * * * * * * * * * * * * //

dimensions      [0 0 0 1 0 0 0];


internalField   nonuniform List<scalar> 
4800
(
111.5406936
111.5406936
111.5406936
111.5406936
111.5406935
111.5406935
111.5406935
111.5406935
111.5406935
111.5406935
111.5406935
111.5406935
111.5406934
111.5406934
111.5406934
111.5406934
111.5406934
111.5406934
111.5406933
111.5406933
111.5406933
111.5406933
111.5406933
111.5406932
111.5406932
111.5406932
111.5406932
111.5406932
111.5406928
111.5406949
111.5406839
111.5407338
111.5405373
111.5411944
111.5393678
111.5434846
111.5360188
111.547135
111.5356848
111.5379993
111.5406814
111.5406813
111.5406813
111.5406813
111.5406813
111.5406813
111.5406813
111.5406813
111.5406813
111.5406813
111.5406814
111.5406814
111.5406814
111.5406814
111.5406814
111.5406814
111.5406814
111.5406814
111.5406814
111.5406814
111.5406814
111.5406814
111.5406814
111.5406814
111.5406814
111.5406814
111.5406814
111.5406815
111.5406811
111.540683
111.5406734
111.5407155
111.5405541
111.5410778
111.5396632
111.5427679
111.5372964
111.545189
111.5379458
111.5380008
111.5406691
111.5406691
111.5406691
111.5406691
111.5406691
111.5406691
111.5406691
111.5406691
111.5406691
111.5406691
111.5406692
111.5406692
111.5406692
111.5406692
111.5406693
111.5406693
111.5406693
111.5406694
111.5406694
111.5406694
111.5406695
111.5406695
111.5406695
111.5406695
111.5406695
111.5406696
111.5406696
111.5406696
111.5406693
111.5406706
111.540664
111.5406934
111.5405776
111.5409657
111.5398735
111.5423919
111.5376908
111.5448787
111.5380616
111.5379997
111.5406568
111.5406568
111.5406568
111.5406568
111.5406568
111.5406568
111.5406568
111.5406569
111.5406569
111.5406569
111.540657
111.540657
111.5406571
111.5406571
111.5406572
111.5406572
111.5406573
111.5406573
111.5406574
111.5406574
111.5406575
111.5406575
111.5406576
111.5406576
111.5406577
111.5406577
111.5406577
111.5406577
111.5406575
111.5406585
111.5406533
111.5406767
111.5405831
111.5409008
111.5399929
111.5421199
111.5380941
111.544355
111.537785
111.5380081
111.5406445
111.5406445
111.5406445
111.5406445
111.5406445
111.5406446
111.5406446
111.5406446
111.5406447
111.5406447
111.5406448
111.5406449
111.5406449
111.540645
111.5406451
111.5406451
111.5406452
111.5406453
111.5406454
111.5406455
111.5406455
111.5406456
111.5406457
111.5406457
111.5406458
111.5406458
111.5406458
111.5406459
111.5406457
111.5406465
111.540642
111.5406622
111.540581
111.5408578
111.5400629
111.5419334
111.5383811
111.5439367
111.5378275
111.5380095
111.5406322
111.5406322
111.5406322
111.5406322
111.5406323
111.5406323
111.5406323
111.5406324
111.5406325
111.5406325
111.5406326
111.5406327
111.5406328
111.5406329
111.540633
111.5406331
111.5406332
111.5406333
111.5406334
111.5406335
111.5406336
111.5406337
111.5406338
111.5406339
111.5406339
111.540634
111.540634
111.540634
111.5406339
111.5406346
111.5406306
111.5406488
111.5405752
111.5408262
111.540106
111.5417943
111.5386106
111.5435413
111.5381281
111.5379977
111.5406199
111.5406199
111.5406199
111.5406199
111.54062
111.54062
111.5406201
111.5406202
111.5406202
111.5406203
111.5406204
111.5406205
111.5406206
111.5406207
111.5406209
111.540621
111.5406211
111.5406212
111.5406214
111.5406215
111.5406216
111.5406218
111.5406219
111.540622
111.5406221
111.5406221
111.5406222
111.5406222
111.5406221
111.5406228
111.540619
111.5406359
111.5405677
111.5407999
111.5401353
111.5416832
111.5388065
111.5431696
111.5380167
111.5379962
111.5406076
111.5406076
111.5406076
111.5406076
111.5406077
111.5406077
111.5406078
111.5406079
111.540608
111.5406081
111.5406082
111.5406083
111.5406085
111.5406086
111.5406087
111.5406089
111.5406091
111.5406092
111.5406094
111.5406095
111.5406097
111.5406098
111.54061
111.5406101
111.5406102
111.5406103
111.5406104
111.5406104
111.5406104
111.540611
111.5406075
111.5406231
111.5405599
111.540775
111.5401628
111.5415701
111.5390203
111.5427764
111.5379926
111.5379975
111.5405953
111.5405953
111.5405953
111.5405953
111.5405954
111.5405955
111.5405955
111.5405956
111.5405957
111.5405959
111.540596
111.5405961
111.5405963
111.5405965
111.5405966
111.5405968
111.540597
111.5405972
111.5405974
111.5405975
111.5405977
111.5405979
111.5405981
111.5405982
111.5405984
111.5405985
111.5405986
111.5405987
111.5405986
111.5405992
111.540596
111.5406103
111.5405521
111.5407506
111.5401857
111.5414796
111.5391605
111.5425251
111.5380003
111.5379988
111.540583
111.540583
111.540583
111.540583
111.5405831
111.5405832
111.5405833
111.5405834
111.5405835
111.5405836
111.5405838
111.5405839
111.5405841
111.5405843
111.5405845
111.5405847
111.5405849
111.5405851
111.5405854
111.5405856
111.5405858
111.540586
111.5405862
111.5405864
111.5405866
111.5405867
111.5405868
111.5405869
111.5405869
111.5405874
111.5405846
111.5405975
111.5405447
111.5407256
111.5402095
111.541392
111.5392798
111.5423246
111.5380062
111.5379999
111.5405706
111.5405706
111.5405706
111.5405707
111.5405708
111.5405708
111.5405709
111.5405711
111.5405712
111.5405714
111.5405715
111.5405717
111.5405719
111.5405721
111.5405724
111.5405726
111.5405728
111.5405731
111.5405733
111.5405736
111.5405738
111.5405741
111.5405743
111.5405745
111.5405747
111.5405749
111.5405751
111.5405752
111.5405752
111.5405757
111.5405732
111.540585
111.5405366
111.5407031
111.5402254
111.5413221
111.539369
111.5421621
111.5380083
111.5380013
111.5405583
111.5405583
111.5405583
111.5405583
111.5405584
111.5405585
111.5405586
111.5405588
111.5405589
111.5405591
111.5405593
111.5405595
111.5405597
111.54056
111.5405602
111.5405605
111.5405608
111.540561
111.5405613
111.5405616
111.5405619
111.5405622
111.5405624
111.5405627
111.5405629
111.5405631
111.5405633
111.5405635
111.5405635
111.540564
111.5405618
111.5405725
111.5405285
111.5406808
111.5402412
111.5412556
111.5394439
111.542029
111.5380112
111.5380027
111.5405459
111.5405459
111.5405459
111.540546
111.5405461
111.5405462
111.5405463
111.5405465
111.5405466
111.5405468
111.540547
111.5405473
111.5405475
111.5405478
111.5405481
111.5405484
111.5405487
111.540549
111.5405493
111.5405496
111.5405499
111.5405503
111.5405506
111.5405509
111.5405511
111.5405514
111.5405516
111.5405518
111.5405519
111.5405524
111.5405504
111.5405601
111.54052
111.54066
111.5402532
111.5411969
111.5395079
111.5418287
111.5380113
111.5380043
111.5405335
111.5405335
111.5405335
111.5405336
111.5405337
111.5405338
111.5405339
111.5405341
111.5405343
111.5405345
111.5405348
111.540535
111.5405353
111.5405356
111.5405359
111.5405362
111.5405366
111.5405369
111.5405373
111.5405376
111.540538
111.5405383
111.5405387
111.540539
111.5405394
111.5405396
111.5405399
111.5405402
111.5405403
111.5405408
111.540539
111.5405479
111.5405113
111.5406398
111.5402638
111.5411429
111.5395611
111.5414603
111.5380112
111.5380057
111.5405211
111.5405211
111.5405211
111.5405212
111.5405213
111.5405214
111.5405216
111.5405218
111.540522
111.5405222
111.5405224
111.5405227
111.540523
111.5405234
111.5405237
111.5405241
111.5405244
111.5405248
111.5405252
111.5405256
111.540526
111.5405264
111.5405268
111.5405272
111.5405276
111.5405279
111.5405282
111.5405285
111.5405287
111.5405292
111.5405276
111.5405357
111.5405023
111.5406204
111.5402729
111.5410906
111.5396121
111.5409587
111.5380117
111.5380068
111.5405087
111.5405087
111.5405087
111.5405088
111.5405089
111.540509
111.5405092
111.5405094
111.5405096
111.5405098
111.5405101
111.5405104
111.5405108
111.5405111
111.5405115
111.5405119
111.5405123
111.5405127
111.5405132
111.5405136
111.5405141
111.5405145
111.5405149
111.5405154
111.5405158
111.5405162
111.5405166
111.5405169
111.5405171
111.5405176
111.5405163
111.5405237
111.5404932
111.5406017
111.5402807
111.5410405
111.5396586
111.5404212
111.5380129
111.5380071
111.5404962
111.5404962
111.5404962
111.5404963
111.5404964
111.5404966
111.5404968
111.540497
111.5404972
111.5404975
111.5404978
111.5404981
111.5404985
111.5404989
111.5404993
111.5404997
111.5405001
111.5405006
111.5405011
111.5405016
111.5405021
111.5405026
111.5405031
111.5405036
111.540504
111.5405045
111.5405049
111.5405053
111.5405056
111.5405061
111.5405049
111.5405117
111.540484
111.5405834
111.5402875
111.5409928
111.5397019
111.5399027
111.5380124
111.5380071
111.5404837
111.5404837
111.5404838
111.5404838
111.540484
111.5404841
111.5404843
111.5404845
111.5404848
111.5404851
111.5404854
111.5404858
111.5404861
111.5404866
111.540487
111.5404875
111.540488
111.5404885
111.540489
111.5404895
111.5404901
111.5404906
111.5404912
111.5404917
111.5404923
111.5404928
111.5404932
111.5404937
111.540494
111.5404946
111.5404936
111.5404999
111.5404747
111.5405657
111.5402933
111.5409478
111.53974
111.5394326
111.5380118
111.5380071
111.5404712
111.5404712
111.5404712
111.5404713
111.5404715
111.5404716
111.5404718
111.5404721
111.5404724
111.5404727
111.540473
111.5404734
111.5404738
111.5404742
111.5404747
111.5404752
111.5404758
111.5404763
111.5404769
111.5404775
111.5404781
111.5404787
111.5404793
111.5404799
111.5404805
111.5404811
111.5404816
111.5404821
111.5404825
111.5404831
111.5404823
111.5404881
111.5404652
111.5405486
111.5402976
111.5409056
111.5397737
111.539022
111.5380116
111.5380073
111.5404587
111.5404587
111.5404587
111.5404588
111.5404589
111.5404591
111.5404593
111.5404596
111.5404599
111.5404602
111.5404606
111.540461
111.5404614
111.5404619
111.5404624
111.5404629
111.5404635
111.5404641
111.5404647
111.5404654
111.540466
111.5404667
111.5404674
111.540468
111.5404687
111.5404693
111.5404699
111.5404705
111.540471
111.5404717
111.5404711
111.5404764
111.5404556
111.5405319
111.5403011
111.5408652
111.5398041
111.5386663
111.5380118
111.5380076
111.5404461
111.5404461
111.5404461
111.5404462
111.5404464
111.5404466
111.5404468
111.5404471
111.5404474
111.5404477
111.5404481
111.5404485
111.540449
111.5404495
111.5404501
111.5404506
111.5404513
111.5404519
111.5404526
111.5404533
111.540454
111.5404547
111.5404555
111.5404562
111.5404569
111.5404576
111.5404583
111.540459
111.5404595
111.5404602
111.5404598
111.5404647
111.5404459
111.5405157
111.5403037
111.5408257
111.5398344
111.5383594
111.5380121
111.5380076
111.5404335
111.5404335
111.5404335
111.5404336
111.5404338
111.540434
111.5404342
111.5404345
111.5404348
111.5404352
111.5404356
111.5404361
111.5404366
111.5404371
111.5404377
111.5404383
111.540439
111.5404397
111.5404404
111.5404411
111.5404419
111.5404427
111.5404435
111.5404443
111.5404451
111.5404459
111.5404467
111.5404474
111.540448
111.5404488
111.5404485
111.5404531
111.5404362
111.5404998
111.5403056
111.5407884
111.5398609
111.5381523
111.5380125
111.5380072
111.5404209
111.5404209
111.5404209
111.540421
111.5404212
111.5404214
111.5404216
111.5404219
111.5404222
111.5404226
111.5404231
111.5404235
111.5404241
111.5404246
111.5404252
111.5404259
111.5404266
111.5404274
111.5404281
111.540429
111.5404298
111.5404307
111.5404315
111.5404324
111.5404333
111.5404342
111.540435
111.5404358
111.5404366
111.5404374
111.5404373
111.5404415
111.5404264
111.5404841
111.540307
111.5407515
111.5398888
111.5381057
111.5380121
111.5380067
111.5404082
111.5404082
111.5404082
111.5404084
111.5404085
111.5404087
111.540409
111.5404093
111.5404096
111.54041
111.5404105
111.540411
111.5404115
111.5404121
111.5404128
111.5404135
111.5404142
111.540415
111.5404159
111.5404167
111.5404176
111.5404186
111.5404195
111.5404205
111.5404215
111.5404224
111.5404233
111.5404243
111.5404251
111.540426
111.5404261
111.54043
111.5404166
111.5404688
111.5403079
111.5407158
111.5399146
111.5380934
111.5380116
111.5380064
111.5403955
111.5403955
111.5403956
111.5403957
111.5403958
111.540396
111.5403963
111.5403966
111.540397
111.5403974
111.5403979
111.5403984
111.5403989
111.5403996
111.5404003
111.540401
111.5404018
111.5404026
111.5404035
111.5404045
111.5404055
111.5404065
111.5404075
111.5404085
111.5404096
111.5404106
111.5404117
111.5404127
111.5404136
111.5404146
111.5404149
111.5404185
111.5404067
111.5404537
111.540308
111.5406817
111.5399382
111.5380811
111.5380115
111.5380065
111.5403828
111.5403828
111.5403828
111.540383
111.5403831
111.5403833
111.5403836
111.5403839
111.5403843
111.5403847
111.5403852
111.5403857
111.5403863
111.540387
111.5403877
111.5403885
111.5403893
111.5403902
111.5403912
111.5403922
111.5403932
111.5403943
111.5403954
111.5403965
111.5403977
111.5403988
111.5404
111.5404011
111.5404021
111.5404032
111.5404037
111.540407
111.5403969
111.5404389
111.5403075
111.540649
111.5399599
111.5380673
111.5380119
111.5380069
111.5403701
111.54037
111.5403701
111.5403702
111.5403704
111.5403706
111.5403709
111.5403712
111.5403716
111.540372
111.5403725
111.540373
111.5403736
111.5403743
111.5403751
111.5403759
111.5403768
111.5403777
111.5403787
111.5403798
111.5403809
111.5403821
111.5403833
111.5403845
111.5403858
111.540387
111.5403882
111.5403895
111.5403906
111.5403918
111.5403925
111.5403956
111.5403869
111.5404244
111.5403064
111.5406177
111.5399795
111.5380477
111.5380123
111.5380074
111.5403573
111.5403573
111.5403573
111.5403574
111.5403576
111.5403578
111.5403581
111.5403584
111.5403588
111.5403592
111.5403597
111.5403603
111.5403609
111.5403616
111.5403624
111.5403632
111.5403642
111.5403652
111.5403662
111.5403674
111.5403686
111.5403698
111.5403711
111.5403724
111.5403738
111.5403751
111.5403765
111.5403778
111.5403791
111.5403804
111.5403813
111.5403841
111.540377
111.5404102
111.5403046
111.540588
111.539997
111.5380692
111.5380127
111.5380071
111.5403445
111.5403445
111.5403445
111.5403447
111.5403448
111.540345
111.5403453
111.5403456
111.540346
111.5403464
111.5403469
111.5403475
111.5403481
111.5403489
111.5403497
111.5403505
111.5403515
111.5403525
111.5403537
111.5403549
111.5403561
111.5403575
111.5403588
111.5403603
111.5403617
111.5403632
111.5403647
111.5403661
111.5403676
111.540369
111.5403701
111.5403727
111.5403671
111.5403961
111.5403023
111.5405595
111.5400144
111.5381299
111.5380108
111.5380065
111.5403317
111.5403317
111.5403317
111.5403319
111.540332
111.5403322
111.5403325
111.5403328
111.5403332
111.5403336
111.5403341
111.5403347
111.5403353
111.540336
111.5403369
111.5403378
111.5403388
111.5403398
111.540341
111.5403423
111.5403436
111.5403451
111.5403465
111.5403481
111.5403496
111.5403512
111.5403528
111.5403544
111.540356
111.5403575
111.540359
111.5403612
111.5403571
111.5403822
111.5402995
111.5405324
111.5400296
111.538105
111.5380106
111.538006
111.5403189
111.5403189
111.540319
111.5403191
111.5403192
111.5403194
111.5403196
111.5403199
111.5403203
111.5403207
111.5403212
111.5403218
111.5403224
111.5403232
111.540324
111.5403249
111.5403259
111.5403271
111.5403283
111.5403296
111.5403311
111.5403326
111.5403341
111.5403358
111.5403375
111.5403392
111.5403409
111.5403426
111.5403444
111.540346
111.5403478
111.5403497
111.5403472
111.5403684
111.5402963
111.5405065
111.540043
111.5380833
111.5380107
111.5380058
111.5403061
111.5403061
111.5403062
111.5403063
111.5403064
111.5403066
111.5403068
111.5403071
111.5403074
111.5403078
111.5403083
111.5403089
111.5403095
111.5403102
111.5403111
111.540312
111.5403131
111.5403142
111.5403155
111.5403169
111.5403184
111.54032
111.5403217
111.5403234
111.5403252
111.5403271
111.5403289
111.5403308
111.5403327
111.5403344
111.5403366
111.5403381
111.5403373
111.5403547
111.5402928
111.5404815
111.5400547
111.5380591
111.5380113
111.538006
111.5402934
111.5402934
111.5402934
111.5402935
111.5402936
111.5402938
111.540294
111.5402943
111.5402946
111.540295
111.5402954
111.5402959
111.5402966
111.5402973
111.5402981
111.540299
111.5403001
111.5403013
111.5403026
111.5403041
111.5403056
111.5403073
111.5403091
111.540311
111.5403129
111.5403149
111.5403169
111.5403189
111.540321
111.5403228
111.5403254
111.5403265
111.5403275
111.540341
111.5402891
111.5404573
111.540065
111.5380261
111.5380121
111.5380068
111.5402807
111.5402807
111.5402807
111.5402808
111.5402809
111.540281
111.5402812
111.5402814
111.5402817
111.5402821
111.5402825
111.540283
111.5402836
111.5402843
111.5402851
111.540286
111.5402871
111.5402883
111.5402896
111.5402911
111.5402928
111.5402945
111.5402964
111.5402984
111.5403005
111.5403026
111.5403047
111.5403069
111.5403092
111.5403111
111.5403141
111.5403147
111.5403178
111.5403273
111.5402849
111.5404343
111.5400741
111.5379953
111.5380121
111.5380077
111.540268
111.540268
111.5402681
111.5402682
111.5402682
111.5402683
111.5402685
111.5402687
111.5402689
111.5402692
111.5402696
111.54027
111.5402706
111.5402712
111.540272
111.5402729
111.540274
111.5402752
111.5402766
111.5402781
111.5402798
111.5402817
111.5402837
111.5402858
111.5402879
111.5402902
111.5402925
111.5402948
111.5402974
111.5402992
111.5403029
111.5403027
111.5403081
111.5403136
111.5402803
111.5404126
111.5400816
111.5381486
111.5380078
111.5380077
111.5402555
111.5402556
111.5402556
111.5402557
111.5402557
111.5402558
111.5402559
111.540256
111.5402562
111.5402564
111.5402568
111.5402571
111.5402576
111.5402582
111.5402589
111.5402598
111.5402608
111.540262
111.5402634
111.540265
111.5402668
111.5402687
111.5402708
111.540273
111.5402753
111.5402777
111.5402802
111.5402826
111.5402854
111.5402873
111.5402917
111.5402906
111.5402986
111.5402997
111.5402757
111.5403915
111.5400887
111.5381479
111.5380046
111.5380073
111.5402433
111.5402433
111.5402434
111.5402434
111.5402434
111.5402434
111.5402435
111.5402436
111.5402437
111.5402439
111.5402441
111.5402444
111.5402448
111.5402453
111.540246
111.5402468
111.5402477
111.5402489
111.5402502
111.5402518
111.5402536
111.5402556
111.5402578
111.5402601
111.5402626
111.5402651
111.5402678
111.5402703
111.5402734
111.5402751
111.5402804
111.5402782
111.540289
111.5402858
111.5402708
111.5403711
111.5400942
111.5381089
111.5380025
111.5380069
111.5402305
111.5402309
111.5402311
111.5402311
111.540231
111.5402309
111.5402309
111.5402309
111.540231
111.5402311
111.5402312
111.5402315
111.5402318
111.5402322
111.5402328
111.5402336
111.5402346
111.5402357
111.5402371
111.5402387
111.5402405
111.5402425
111.5402447
111.5402472
111.5402497
111.5402524
111.5402552
111.5402578
111.5402613
111.5402628
111.5402692
111.5402656
111.5402796
111.5402719
111.5402652
111.5403522
111.5400981
111.5380749
111.5380007
111.5380064
111.5402111
111.5402146
111.5402156
111.5402154
111.5402149
111.5402145
111.5402144
111.5402144
111.5402145
111.5402145
111.5402146
111.5402147
111.540215
111.5402156
111.5402165
111.5402176
111.5402191
111.5402209
111.5402229
111.5402249
111.5402271
111.5402293
111.5402317
111.5402342
111.5402369
111.5402396
111.5402426
111.5402452
111.5402492
111.5402502
111.540258
111.5402527
111.5402701
111.5402581
111.540259
111.5403345
111.5401003
111.5380431
111.5379993
111.5380059
111.5401626
111.5401793
111.5401837
111.5401828
111.5401805
111.5401792
111.5401791
111.5401796
111.5401799
111.5401799
111.5401797
111.5401796
111.5401801
111.5401813
111.5401836
111.5401867
111.5401907
111.5401954
111.5402006
111.5402057
111.5402104
111.5402145
111.540218
111.5402211
111.540224
111.5402268
111.54023
111.5402325
111.540237
111.5402374
111.5402467
111.5402396
111.5402603
111.5402446
111.5402519
111.5403182
111.5401009
111.5380201
111.5379985
111.5380056
111.5400314
111.5400899
111.5401027
111.5400987
111.5400913
111.5400882
111.5400891
111.540091
111.5400918
111.5400913
111.5400902
111.5400896
111.5400907
111.540094
111.5400998
111.540108
111.5401187
111.5401316
111.5401463
111.5401616
111.5401763
111.5401889
111.5401986
111.5402054
111.5402103
111.5402138
111.5402174
111.5402197
111.5402248
111.5402244
111.5402354
111.5402263
111.5402502
111.5402314
111.5402438
111.540303
111.5401001
111.5379239
111.5379977
111.5380056
111.5392418
111.5398147
111.5398418
111.5397895
111.5397531
111.5397816
111.5398214
111.5398418
111.539848
111.5398493
111.5398544
111.5398675
111.5398843
111.5398983
111.5399117
111.5399282
111.5399494
111.5399759
111.5400081
111.5400454
111.5400851
111.5401224
111.5401533
111.5401754
111.5401898
111.540198
111.5402041
111.5402066
111.5402128
111.5402111
111.540224
111.5402128
111.5402395
111.540219
111.5402341
111.5402897
111.5400976
111.5379464
111.5379953
111.5380058
111.530295
111.5365744
111.5365677
111.5358706
111.5360125
111.5368739
111.5376269
111.5380201
111.5382542
111.5384915
111.5388023
111.5391374
111.5393922
111.539519
111.5395689
111.5395891
111.5396067
111.5396287
111.539676
111.5397527
111.5398497
111.5399479
111.5400325
111.5400969
111.5401414
111.5401679
111.5401848
111.5401912
111.5402004
111.5401978
111.5402126
111.5401995
111.5402282
111.5402069
111.5402239
111.5402763
111.5400948
111.5378462
111.5379928
111.5380061
111.519951
111.5204382
111.5207676
111.5211484
111.5231907
111.5257026
111.5279331
111.5297208
111.5314292
111.533309
111.5352295
111.5368826
111.5379555
111.5384881
111.5385992
111.5384533
111.5382367
111.5381661
111.5383893
111.5387751
111.5391832
111.5395112
111.5397455
111.5399074
111.5400195
111.5400917
111.5401401
111.5401629
111.540183
111.5401832
111.5402007
111.5401871
111.5402157
111.5401951
111.5402127
111.5402667
111.5400857
111.5379418
111.5379859
111.5380059
111.5257538
111.5238035
111.5245627
111.5258847
111.5268139
111.5270818
111.5273652
111.5280268
111.5289965
111.5300536
111.5316351
111.5332515
111.5342187
111.534467
111.5338277
111.533189
111.533291
111.5343872
111.5357786
111.5370892
111.5380795
111.538768
111.5392355
111.5395513
111.5397709
111.5399219
111.5400311
111.5400932
111.5401435
111.540159
111.540185
111.5401734
111.5402052
111.5401887
111.5401883
111.5402559
111.5400998
111.5378297
111.5379798
111.5380054
111.5299091
111.5286739
111.5293473
111.5303478
111.530818
111.5309078
111.5311338
111.5316383
111.5322641
111.532733
111.5327065
111.5319404
111.530702
111.5298184
111.5300562
111.5313229
111.533072
111.5346852
111.5360174
111.536927
111.5375701
111.53811
111.5385942
111.5390112
111.5393389
111.5395856
111.5397806
111.5399164
111.5400355
111.5401045
111.5401607
111.5401529
111.5401663
111.5401837
111.5402224
111.5402292
111.540043
111.5378103
111.5379746
111.5380046
111.5326239
111.5319874
111.5325484
111.5332137
111.5333975
111.5334398
111.5336315
111.5339768
111.5342812
111.5342802
111.5337815
111.5329438
111.5323826
111.5323276
111.5332322
111.5347303
111.5361253
111.5370888
111.537608
111.5374062
111.5370202
111.5369739
111.5372088
111.5376042
111.5380333
111.538457
111.5388555
111.5391988
111.5395245
111.5398071
111.5400813
111.5402142
111.540204
111.5400671
111.5401008
111.5402819
111.5401195
111.5378697
111.5379679
111.5380035
111.5343996
111.5341416
111.5345819
111.5349671
111.5350047
111.5350283
111.5351633
111.5353404
111.5353763
111.5351054
111.5345794
111.5341526
111.5340945
111.5345
111.5356611
111.5368374
111.5375956
111.537838
111.5374691
111.5362804
111.5343097
111.5326291
111.5319946
111.5322546
111.533118
111.5342758
111.5355621
111.5367534
111.5376648
111.5382047
111.5389902
111.539901
111.5404585
111.5404139
111.540149
111.5401495
111.5400622
111.537667
111.5379668
111.5380022
111.5356144
111.5355319
111.5358603
111.5360487
111.5360218
111.536025
111.5360853
111.5361138
111.5359847
111.5356726
111.5353489
111.5352431
111.5354315
111.5361095
111.53708
111.5377131
111.5377978
111.5372072
111.5359461
111.5344599
111.5335412
111.5330971
111.5336057
111.5344301
111.5352444
111.536097
111.5370595
111.5381194
111.5392956
111.5408357
111.5391716
111.5383632
111.5395297
111.5404651
111.5403613
111.5401945
111.5400043
111.53776
111.5379582
111.5380003
111.5364578
111.5364507
111.5366764
111.5367409
111.5366831
111.5366574
111.5366459
111.5365792
111.5364081
111.5361867
111.5360532
111.5361056
111.5364195
111.5370833
111.5376552
111.5377475
111.5372746
111.5363955
111.5355459
111.5351288
111.5349728
111.5354161
111.5360742
111.536681
111.5371195
111.5375834
111.5380843
111.5385872
111.5391686
111.5400422
111.5413868
111.5422975
111.5388393
111.5394666
111.5404702
111.5403558
111.5400349
111.5377505
111.5379531
111.5379985
111.537057
111.5370768
111.5372143
111.5372035
111.5371241
111.537066
111.5370041
111.5369045
111.5367684
111.5366521
111.5366289
111.5367525
111.5370898
111.5375476
111.5377251
111.5374697
111.5369249
111.5364065
111.53615
111.5361907
111.5364919
111.5370948
111.5376551
111.5380112
111.5382532
111.5384567
111.5386984
111.5388747
111.5390827
111.539477
111.5403819
111.5417889
111.542606
111.5390962
111.5397417
111.5404693
111.5401721
111.5377337
111.5379533
111.5379971
111.5374964
111.5375181
111.537584
111.5375249
111.5374248
111.5373386
111.5372539
111.5371646
111.5370832
111.5370407
111.5370732
111.5372182
111.5374878
111.5377119
111.5376547
111.5373553
111.537011
111.5367961
111.536789
111.5370146
111.5375225
111.5381632
111.5385818
111.538784
111.5388498
111.5388877
111.5389696
111.5390595
111.5391734
111.5394123
111.5398807
111.5407553
111.541914
111.5405713
111.5394987
111.5401302
111.5401347
111.537733
111.5379569
111.5379961
111.5378299
111.5378409
111.5378499
111.5377568
111.5376361
111.5375308
111.5374444
111.5373809
111.5373445
111.5373448
111.5374002
111.5375296
111.5377012
111.5377716
111.5376511
111.537432
111.537244
111.5371581
111.5372095
111.5374792
111.5380011
111.5385508
111.5389354
111.5391476
111.5391838
111.5391164
111.5390863
111.5392272
111.5394287
111.5395921
111.5399368
111.5405102
111.5411776
111.5418376
111.5398792
111.5400006
111.5400841
111.537707
111.537964
111.5379956
111.5380891
111.538086
111.5380513
111.5379326
111.537794
111.5376775
111.5375981
111.5375574
111.5375477
111.5375664
111.5376215
111.5377159
111.5378092
111.5378147
111.5377061
111.537547
111.537416
111.5373563
111.5373619
111.5375266
111.5378954
111.5382706
111.5386343
111.5390077
111.539303
111.5394746
111.5395487
111.5396259
111.5397349
111.5398409
111.5399325
111.5400026
111.5400667
111.5402033
111.5398371
111.540133
111.5400225
111.5378177
111.5379715
111.5379954
111.5383016
111.5382806
111.5382135
111.5380775
111.5379256
111.537802
111.5377267
111.5376961
111.5376939
111.5377107
111.5377483
111.537804
111.5378499
111.5378383
111.537754
111.5376201
111.5375065
111.5374
111.5373837
111.5374321
111.5376799
111.5378692
111.5381603
111.5385192
111.5388268
111.539127
111.5393532
111.5394478
111.539347
111.5390921
111.5389358
111.5384855
111.5378647
111.5377411
111.5375242
111.5374165
111.5401538
111.5379826
111.5379774
111.5379955
111.5384833
111.5384475
111.5383581
111.5382128
111.538055
111.5379255
111.5378448
111.5378073
111.5377935
111.5377909
111.5377998
111.5378206
111.5378406
111.5378286
111.5377716
111.5376931
111.537629
111.5373879
111.5373979
111.5374661
111.5375243
111.5375573
111.5378043
111.5380581
111.5382502
111.5385095
111.5387117
111.5388236
111.5388548
111.5385767
111.538422
111.5382364
111.5380809
111.5378058
111.5378061
111.5377523
111.5376778
111.5379929
111.5379813
111.5379957
111.5386395
111.538597
111.5385028
111.5383605
111.5382083
111.53808
111.5379871
111.5379258
111.5378846
111.5378529
111.5378329
111.5378299
111.537841
111.5378564
111.5378575
111.5378521
111.5377794
111.5375754
111.5375171
111.5374848
111.5374583
111.5374877
111.5375981
111.5377272
111.5378055
111.5380778
111.5382586
111.5383545
111.538461
111.5384035
111.5383069
111.538185
111.5380925
111.5378708
111.5379058
111.5379014
111.5379351
111.537964
111.5379836
111.5379961
111.5387805
111.5387378
111.5386608
111.5385454
111.5384182
111.5383142
111.5382132
111.5381291
111.5380555
111.5380057
111.5379791
111.5379754
111.5379814
111.5380343
111.538096
111.538132
111.5381167
111.5380276
111.537884
111.537728
111.5376009
111.5375004
111.5374619
111.5374972
111.5375977
111.5377411
111.5379
111.5380472
111.5381579
111.5382127
111.5382066
111.5381524
111.5380898
111.5378979
111.5379239
111.5379156
111.5379443
111.5379596
111.5379872
111.5379959
111.5389186
111.5388894
111.5388226
111.538751
111.5386782
111.5386048
111.5385283
111.5384421
111.5383769
111.5383428
111.5383243
111.5383119
111.5383149
111.5383455
111.5383891
111.5384152
111.5384118
111.5383694
111.53826
111.5381006
111.5379372
111.5377416
111.5375552
111.5374392
111.5374781
111.537556
111.5376722
111.5377966
111.5379063
111.5379887
111.5380349
111.5380284
111.537978
111.5379513
111.5379283
111.5379182
111.5379316
111.5379681
111.537991
111.5379942
111.5380823
111.537941
111.5378894
111.5379786
111.5381406
111.5382709
111.5383867
111.5384817
111.5385671
111.5386391
111.5386847
111.5387119
111.5387409
111.5387814
111.5388099
111.5388071
111.538756
111.5386436
111.5385238
111.5383542
111.5380343
111.5378765
111.5376895
111.537579
111.5375367
111.5375875
111.5376708
111.5377683
111.5378257
111.5378871
111.5378955
111.5378706
111.5378764
111.5379108
111.5379395
111.5379271
111.5379217
111.5379479
111.5379873
111.5379896
111.5350847
111.53557
111.5360285
111.5363506
111.53654
111.5368613
111.5372973
111.5377174
111.5380885
111.5383834
111.5385887
111.5387035
111.5387875
111.5388996
111.5389887
111.5390408
111.5390377
111.5389874
111.5389077
111.5387853
111.538572
111.5383216
111.5381613
111.5378461
111.5378277
111.5377413
111.5377879
111.537887
111.5379333
111.5379249
111.5379078
111.5378917
111.5378946
111.5379183
111.5379373
111.5379671
111.5379254
111.537888
111.5379054
111.5379743
111.5485004
111.5390943
111.5373607
111.536797
111.5363509
111.5361433
111.5363586
111.5369696
111.5375059
111.5379595
111.5382693