/*--------------------------------*- C++ -*----------------------------------*\
| =========                 |                                                 |
| \\      /  F ield         | OpenFOAM: The Open Source CFD Toolbox           |
|  \\    /   O peration     | Version:  v1912                                 |
|   \\  /    A nd           | Website:  www.openfoam.com                      |
|    \\/     M anipulation  |                                                 |
\*---------------------------------------------------------------------------*/
FoamFile
{
    version     2.0;
    format      ascii;
    class       volScalarField;
    location    "1";
    object      Tf.gasAndLiquid;
}
// * * * * * * * * * * * * * * * * * * * * * * * * * * * * * * * * * * * * * //

dimensions      [0 0 0 1 0 0 0];


internalField   nonuniform List<scalar> 
4800
(
111.5406936
111.5406936
111.5406936
111.5406936
111.5406935
111.5406935
111.5406935
111.5406935
111.5406935
111.5406935
111.5406935
111.5406935
111.5406934
111.5406934
111.5406934
111.5406934
111.5406934
111.5406934
111.5406933
111.5406933
111.5406933
111.5406933
111.5406933
111.5406932
111.5406932
111.5406932
111.5406932
111.5406932
111.5406928
111.5406949
111.5406839
111.5407338
111.5405373
111.5411944
111.5393678
111.5434846
111.5360188
111.547135
111.5360181
111.538
111.5406814
111.5406813
111.5406813
111.5406813
111.5406813
111.5406813
111.5406813
111.5406813
111.5406813
111.5406813
111.5406814
111.5406814
111.5406814
111.5406814
111.5406814
111.5406814
111.5406814
111.5406814
111.5406814
111.5406814
111.5406814
111.5406814
111.5406814
111.5406814
111.5406814
111.5406814
111.5406814
111.5406815
111.5406811
111.540683
111.5406734
111.5407155
111.5405541
111.5410778
111.5396632
111.5427679
111.5372964
111.5451891
111.538
111.538
111.5406691
111.5406691
111.5406691
111.5406691
111.5406691
111.5406691
111.5406691
111.5406691
111.5406691
111.5406691
111.5406692
111.5406692
111.5406692
111.5406692
111.5406693
111.5406693
111.5406693
111.5406694
111.5406694
111.5406694
111.5406695
111.5406695
111.5406695
111.5406695
111.5406695
111.5406696
111.5406696
111.5406696
111.5406693
111.5406706
111.540664
111.5406934
111.5405776
111.5409657
111.5398735
111.5423919
111.5376908
111.5448788
111.538
111.538
111.5406568
111.5406568
111.5406568
111.5406568
111.5406568
111.5406568
111.5406568
111.5406569
111.5406569
111.5406569
111.540657
111.540657
111.5406571
111.5406571
111.5406572
111.5406572
111.5406573
111.5406573
111.5406574
111.5406574
111.5406575
111.5406575
111.5406576
111.5406576
111.5406577
111.5406577
111.5406577
111.5406577
111.5406575
111.5406585
111.5406533
111.5406767
111.5405831
111.5409008
111.5399929
111.5421199
111.5380941
111.5443551
111.538
111.538
111.5406445
111.5406445
111.5406445
111.5406445
111.5406445
111.5406446
111.5406446
111.5406446
111.5406447
111.5406447
111.5406448
111.5406449
111.5406449
111.540645
111.5406451
111.5406451
111.5406452
111.5406453
111.5406454
111.5406455
111.5406455
111.5406456
111.5406457
111.5406457
111.5406458
111.5406458
111.5406458
111.5406459
111.5406457
111.5406465
111.540642
111.5406622
111.540581
111.5408578
111.5400629
111.5419334
111.5383811
111.5439369
111.538
111.538
111.5406322
111.5406322
111.5406322
111.5406322
111.5406323
111.5406323
111.5406323
111.5406324
111.5406325
111.5406325
111.5406326
111.5406327
111.5406328
111.5406329
111.540633
111.5406331
111.5406332
111.5406333
111.5406334
111.5406335
111.5406336
111.5406337
111.5406338
111.5406339
111.5406339
111.540634
111.540634
111.540634
111.5406339
111.5406346
111.5406306
111.5406488
111.5405752
111.5408262
111.540106
111.5417943
111.5386106
111.5435414
111.538
111.538
111.5406199
111.5406199
111.5406199
111.5406199
111.54062
111.54062
111.5406201
111.5406202
111.5406202
111.5406203
111.5406204
111.5406205
111.5406206
111.5406207
111.5406209
111.540621
111.5406211
111.5406212
111.5406214
111.5406215
111.5406216
111.5406218
111.5406219
111.540622
111.5406221
111.5406221
111.5406222
111.5406222
111.5406221
111.5406228
111.540619
111.5406359
111.5405677
111.5407999
111.5401353
111.5416832
111.5388065
111.5431698
111.538
111.538
111.5406076
111.5406076
111.5406076
111.5406076
111.5406077
111.5406077
111.5406078
111.5406079
111.540608
111.5406081
111.5406082
111.5406083
111.5406085
111.5406086
111.5406087
111.5406089
111.5406091
111.5406092
111.5406094
111.5406095
111.5406097
111.5406098
111.54061
111.5406101
111.5406102
111.5406103
111.5406104
111.5406104
111.5406104
111.540611
111.5406075
111.5406231
111.5405599
111.540775
111.5401628
111.5415701
111.5390203
111.5427766
111.538
111.538
111.5405953
111.5405953
111.5405953
111.5405953
111.5405954
111.5405955
111.5405955
111.5405956
111.5405957
111.5405959
111.540596
111.5405961
111.5405963
111.5405965
111.5405966
111.5405968
111.540597
111.5405972
111.5405974
111.5405975
111.5405977
111.5405979
111.5405981
111.5405982
111.5405984
111.5405985
111.5405986
111.5405987
111.5405986
111.5405992
111.540596
111.5406103
111.5405521
111.5407506
111.5401857
111.5414796
111.5391605
111.5425254
111.538
111.538
111.540583
111.540583
111.540583
111.540583
111.5405831
111.5405832
111.5405833
111.5405834
111.5405835
111.5405836
111.5405838
111.5405839
111.5405841
111.5405843
111.5405845
111.5405847
111.5405849
111.5405851
111.5405854
111.5405856
111.5405858
111.540586
111.5405862
111.5405864
111.5405866
111.5405867
111.5405868
111.5405869
111.5405869
111.5405874
111.5405846
111.5405975
111.5405447
111.5407256
111.5402095
111.541392
111.5392798
111.5423249
111.538
111.538
111.5405706
111.5405706
111.5405706
111.5405707
111.5405708
111.5405708
111.5405709
111.5405711
111.5405712
111.5405714
111.5405715
111.5405717
111.5405719
111.5405721
111.5405724
111.5405726
111.5405728
111.5405731
111.5405733
111.5405736
111.5405738
111.5405741
111.5405743
111.5405745
111.5405747
111.5405749
111.5405751
111.5405752
111.5405752
111.5405757
111.5405732
111.540585
111.5405366
111.5407031
111.5402254
111.5413221
111.539369
111.5421625
111.538
111.538
111.5405583
111.5405583
111.5405583
111.5405583
111.5405584
111.5405585
111.5405586
111.5405588
111.5405589
111.5405591
111.5405593
111.5405595
111.5405597
111.54056
111.5405602
111.5405605
111.5405608
111.540561
111.5405613
111.5405616
111.5405619
111.5405622
111.5405624
111.5405627
111.5405629
111.5405631
111.5405633
111.5405635
111.5405635
111.540564
111.5405618
111.5405725
111.5405285
111.5406808
111.5402412
111.5412556
111.5394439
111.5420295
111.538
111.538
111.5405459
111.5405459
111.5405459
111.540546
111.5405461
111.5405462
111.5405463
111.5405465
111.5405466
111.5405468
111.540547
111.5405473
111.5405475
111.5405478
111.5405481
111.5405484
111.5405487
111.540549
111.5405493
111.5405496
111.5405499
111.5405503
111.5405506
111.5405509
111.5405511
111.5405514
111.5405516
111.5405518
111.5405519
111.5405524
111.5405504
111.5405601
111.54052
111.54066
111.5402532
111.5411969
111.5395079
111.541824
111.538
111.538
111.5405335
111.5405335
111.5405335
111.5405336
111.5405337
111.5405338
111.5405339
111.5405341
111.5405343
111.5405345
111.5405348
111.540535
111.5405353
111.5405356
111.5405359
111.5405362
111.5405366
111.5405369
111.5405373
111.5405376
111.540538
111.5405383
111.5405387
111.540539
111.5405394
111.5405396
111.5405399
111.5405402
111.5405403
111.5405408
111.540539
111.5405479
111.5405113
111.5406398
111.5402638
111.5411429
111.5395611
111.5414476
111.538
111.538
111.5405211
111.5405211
111.5405211
111.5405212
111.5405213
111.5405214
111.5405216
111.5405218
111.540522
111.5405222
111.5405224
111.5405227
111.540523
111.5405234
111.5405237
111.5405241
111.5405244
111.5405248
111.5405252
111.5405256
111.540526
111.5405264
111.5405268
111.5405272
111.5405276
111.5405279
111.5405282
111.5405285
111.5405287
111.5405292
111.5405276
111.5405357
111.5405023
111.5406204
111.5402729
111.5410906
111.5396121
111.5409374
111.538
111.538
111.5405087
111.5405087
111.5405087
111.5405088
111.5405089
111.540509
111.5405092
111.5405094
111.5405096
111.5405098
111.5405101
111.5405104
111.5405108
111.5405111
111.5405115
111.5405119
111.5405123
111.5405127
111.5405132
111.5405136
111.5405141
111.5405145
111.5405149
111.5405154
111.5405158
111.5405162
111.5405166
111.5405169
111.5405171
111.5405176
111.5405163
111.5405237
111.5404932
111.5406017
111.5402807
111.5410405
111.5396586
111.5403899
111.538
111.538
111.5404962
111.5404962
111.5404962
111.5404963
111.5404964
111.5404966
111.5404968
111.540497
111.5404972
111.5404975
111.5404978
111.5404981
111.5404985
111.5404989
111.5404993
111.5404997
111.5405001
111.5405006
111.5405011
111.5405016
111.5405021
111.5405026
111.5405031
111.5405036
111.540504
111.5405045
111.5405049
111.5405053
111.5405056
111.5405061
111.5405049
111.5405117
111.540484
111.5405834
111.5402875
111.5409928
111.5397019
111.5398614
111.538
111.538
111.5404837
111.5404837
111.5404838
111.5404838
111.540484
111.5404841
111.5404843
111.5404845
111.5404848
111.5404851
111.5404854
111.5404858
111.5404861
111.5404866
111.540487
111.5404875
111.540488
111.5404885
111.540489
111.5404895
111.5404901
111.5404906
111.5404912
111.5404917
111.5404923
111.5404928
111.5404932
111.5404937
111.540494
111.5404946
111.5404936
111.5404999
111.5404747
111.5405657
111.5402933
111.5409478
111.53974
111.5393861
111.538
111.538
111.5404712
111.5404712
111.5404712
111.5404713
111.5404715
111.5404716
111.5404718
111.5404721
111.5404724
111.5404727
111.540473
111.5404734
111.5404738
111.5404742
111.5404747
111.5404752
111.5404758
111.5404763
111.5404769
111.5404775
111.5404781
111.5404787
111.5404793
111.5404799
111.5404805
111.5404811
111.5404816
111.5404821
111.5404825
111.5404831
111.5404823
111.5404881
111.5404652
111.5405486
111.5402976
111.5409056
111.5397737
111.5389708
111.538
111.538
111.5404587
111.5404587
111.5404587
111.5404588
111.5404589
111.5404591
111.5404593
111.5404596
111.5404599
111.5404602
111.5404606
111.540461
111.5404614
111.5404619
111.5404624
111.5404629
111.5404635
111.5404641
111.5404647
111.5404654
111.540466
111.5404667
111.5404674
111.540468
111.5404687
111.5404693
111.5404699
111.5404705
111.540471
111.5404717
111.5404711
111.5404764
111.5404556
111.5405319
111.5403011
111.5408652
111.5398041
111.5386115
111.538
111.538
111.5404461
111.5404461
111.5404461
111.5404462
111.5404464
111.5404466
111.5404468
111.5404471
111.5404474
111.5404477
111.5404481
111.5404485
111.540449
111.5404495
111.5404501
111.5404506
111.5404513
111.5404519
111.5404526
111.5404533
111.540454
111.5404547
111.5404555
111.5404562
111.5404569
111.5404576
111.5404583
111.540459
111.5404595
111.5404602
111.5404598
111.5404647
111.5404459
111.5405157
111.5403037
111.5408257
111.5398344
111.5383027
111.538
111.538
111.5404335
111.5404335
111.5404335
111.5404336
111.5404338
111.540434
111.5404342
111.5404345
111.5404348
111.5404352
111.5404356
111.5404361
111.5404366
111.5404371
111.5404377
111.5404383
111.540439
111.5404397
111.5404404
111.5404411
111.5404419
111.5404427
111.5404435
111.5404443
111.5404451
111.5404459
111.5404467
111.5404474
111.540448
111.5404488
111.5404485
111.5404531
111.5404362
111.5404998
111.5403056
111.5407884
111.539861
111.5380408
111.538
111.538
111.5404209
111.5404209
111.5404209
111.540421
111.5404212
111.5404214
111.5404216
111.5404219
111.5404222
111.5404226
111.5404231
111.5404235
111.5404241
111.5404246
111.5404252
111.5404259
111.5404266
111.5404274
111.5404281
111.540429
111.5404298
111.5404307
111.5404315
111.5404324
111.5404333
111.5404342
111.540435
111.5404358
111.5404366
111.5404374
111.5404373
111.5404415
111.5404264
111.5404841
111.540307
111.5407515
111.5398888
111.538
111.538
111.538
111.5404082
111.5404082
111.5404082
111.5404084
111.5404085
111.5404087
111.540409
111.5404093
111.5404096
111.54041
111.5404105
111.540411
111.5404115
111.5404121
111.5404128
111.5404135
111.5404142
111.540415
111.5404159
111.5404167
111.5404176
111.5404186
111.5404195
111.5404205
111.5404215
111.5404224
111.5404233
111.5404243
111.5404251
111.540426
111.5404261
111.54043
111.5404166
111.5404688
111.5403079
111.5407158
111.5399146
111.538
111.538
111.538
111.5403955
111.5403955
111.5403956
111.5403957
111.5403958
111.540396
111.5403963
111.5403966
111.540397
111.5403974
111.5403979
111.5403984
111.5403989
111.5403996
111.5404003
111.540401
111.5404018
111.5404026
111.5404035
111.5404045
111.5404055
111.5404065
111.5404075
111.5404085
111.5404096
111.5404106
111.5404117
111.5404127
111.5404136
111.5404146
111.5404149
111.5404185
111.5404067
111.5404537
111.540308
111.5406817
111.5399382
111.538
111.538
111.538
111.5403828
111.5403828
111.5403828
111.540383
111.5403831
111.5403833
111.5403836
111.5403839
111.5403843
111.5403847
111.5403852
111.5403857
111.5403863
111.540387
111.5403877
111.5403885
111.5403893
111.5403902
111.5403912
111.5403922
111.5403932
111.5403943
111.5403954
111.5403965
111.5403977
111.5403988
111.5404
111.5404011
111.5404021
111.5404032
111.5404037
111.540407
111.5403969
111.5404389
111.5403075
111.540649
111.5399599
111.538
111.538
111.538
111.5403701
111.54037
111.5403701
111.5403702
111.5403704
111.5403706
111.5403709
111.5403712
111.5403716
111.540372
111.5403725
111.540373
111.5403736
111.5403743
111.5403751
111.5403759
111.5403768
111.5403777
111.5403787
111.5403798
111.5403809
111.5403821
111.5403833
111.5403845
111.5403858
111.540387
111.5403882
111.5403895
111.5403906
111.5403918
111.5403925
111.5403956
111.5403869
111.5404244
111.5403064
111.5406177
111.5399795
111.538
111.538
111.538
111.5403573
111.5403573
111.5403573
111.5403574
111.5403576
111.5403578
111.5403581
111.5403584
111.5403588
111.5403592
111.5403597
111.5403603
111.5403609
111.5403616
111.5403624
111.5403632
111.5403642
111.5403652
111.5403662
111.5403674
111.5403686
111.5403698
111.5403711
111.5403724
111.5403738
111.5403751
111.5403765
111.5403778
111.5403791
111.5403804
111.5403813
111.5403841
111.540377
111.5404102
111.5403046
111.540588
111.539997
111.538
111.538
111.538
111.5403445
111.5403445
111.5403445
111.5403447
111.5403448
111.540345
111.5403453
111.5403456
111.540346
111.5403464
111.5403469
111.5403475
111.5403481
111.5403489
111.5403497
111.5403505
111.5403515
111.5403525
111.5403537
111.5403549
111.5403561
111.5403575
111.5403588
111.5403603
111.5403617
111.5403632
111.5403647
111.5403661
111.5403676
111.540369
111.5403701
111.5403727
111.5403671
111.5403961
111.5403023
111.5405595
111.5400144
111.538
111.538
111.538
111.5403317
111.5403317
111.5403317
111.5403319
111.540332
111.5403322
111.5403325
111.5403328
111.5403332
111.5403336
111.5403341
111.5403347
111.5403353
111.540336
111.5403369
111.5403378
111.5403388
111.5403398
111.540341
111.5403423
111.5403436
111.5403451
111.5403465
111.5403481
111.5403496
111.5403512
111.5403528
111.5403544
111.540356
111.5403575
111.540359
111.5403612
111.5403571
111.5403822
111.5402995
111.5405324
111.5400296
111.538
111.538
111.538
111.5403189
111.5403189
111.540319
111.5403191
111.5403192
111.5403194
111.5403196
111.5403199
111.5403203
111.5403207
111.5403212
111.5403218
111.5403224
111.5403232
111.540324
111.5403249
111.5403259
111.5403271
111.5403283
111.5403296
111.5403311
111.5403326
111.5403341
111.5403358
111.5403375
111.5403392
111.5403409
111.5403426
111.5403444
111.540346
111.5403478
111.5403497
111.5403472
111.5403684
111.5402963
111.5405065
111.540043
111.538
111.538
111.538
111.5403061
111.5403061
111.5403062
111.5403063
111.5403064
111.5403066
111.5403068
111.5403071
111.5403074
111.5403078
111.5403083
111.5403089
111.5403095
111.5403102
111.5403111
111.540312
111.5403131
111.5403142
111.5403155
111.5403169
111.5403184
111.54032
111.5403217
111.5403234
111.5403252
111.5403271
111.5403289
111.5403308
111.5403327
111.5403344
111.5403366
111.5403381
111.5403373
111.5403547
111.5402928
111.5404815
111.5400548
111.538
111.538
111.538
111.5402934
111.5402934
111.5402934
111.5402935
111.5402936
111.5402938
111.540294
111.5402943
111.5402946
111.540295
111.5402954
111.5402959
111.5402966
111.5402973
111.5402981
111.540299
111.5403001
111.5403013
111.5403026
111.5403041
111.5403056
111.5403073
111.5403091
111.540311
111.5403129
111.5403149
111.5403169
111.5403189
111.540321
111.5403228
111.5403254
111.5403265
111.5403275
111.540341
111.5402891
111.5404573
111.540065
111.538
111.538
111.538
111.5402807
111.5402807
111.5402807
111.5402808
111.5402809
111.540281
111.5402812
111.5402814
111.5402817
111.5402821
111.5402825
111.540283
111.5402836
111.5402843
111.5402851
111.540286
111.5402871
111.5402883
111.5402896
111.5402911
111.5402928
111.5402945
111.5402964
111.5402984
111.5403005
111.5403026
111.5403047
111.5403069
111.5403092
111.5403111
111.5403141
111.5403147
111.5403178
111.5403273
111.5402849
111.5404343
111.5400742
111.538
111.538
111.538
111.540268
111.540268
111.5402681
111.5402682
111.5402682
111.5402683
111.5402685
111.5402687
111.5402689
111.5402692
111.5402696
111.54027
111.5402706
111.5402712
111.540272
111.5402729
111.540274
111.5402752
111.5402766
111.5402781
111.5402798
111.5402817
111.5402837
111.5402858
111.5402879
111.5402902
111.5402925
111.5402948
111.5402974
111.5402992
111.5403029
111.5403027
111.5403081
111.5403136
111.5402803
111.5404126
111.5400816
111.538
111.538
111.538
111.5402555
111.5402556
111.5402556
111.5402557
111.5402557
111.5402558
111.5402559
111.540256
111.5402562
111.5402564
111.5402568
111.5402571
111.5402576
111.5402582
111.5402589
111.5402598
111.5402608
111.540262
111.5402634
111.540265
111.5402668
111.5402687
111.5402708
111.540273
111.5402753
111.5402777
111.5402802
111.5402826
111.5402854
111.5402873
111.5402917
111.5402906
111.5402986
111.5402997
111.5402757
111.5403915
111.5400888
111.538
111.538
111.538
111.5402433
111.5402433
111.5402434
111.5402434
111.5402434
111.5402434
111.5402435
111.5402436
111.5402437
111.5402439
111.5402441
111.5402444
111.5402448
111.5402453
111.540246
111.5402468
111.5402477
111.5402489
111.5402502
111.5402518
111.5402536
111.5402556
111.5402578
111.5402601
111.5402626
111.5402651
111.5402678
111.5402703
111.5402734
111.5402751
111.5402804
111.5402782
111.540289
111.5402858
111.5402708
111.5403711
111.5400943
111.538
111.538
111.538
111.5402305
111.5402309
111.5402311
111.5402311
111.540231
111.5402309
111.5402309
111.5402309
111.540231
111.5402311
111.5402312
111.5402315
111.5402318
111.5402322
111.5402328
111.5402336
111.5402346
111.5402357
111.5402371
111.5402387
111.5402405
111.5402425
111.5402447
111.5402472
111.5402497
111.5402524
111.5402552
111.5402578
111.5402613
111.5402628
111.5402692
111.5402656
111.5402796
111.5402719
111.5402652
111.5403522
111.5400981
111.538
111.538
111.538
111.5402111
111.5402146
111.5402156
111.5402154
111.5402149
111.5402145
111.5402144
111.5402144
111.5402145
111.5402145
111.5402146
111.5402147
111.540215
111.5402156
111.5402165
111.5402176
111.5402191
111.5402209
111.5402229
111.5402249
111.5402271
111.5402293
111.5402317
111.5402342
111.5402369
111.5402396
111.5402426
111.5402452
111.5402492
111.5402502
111.540258
111.5402527
111.5402701
111.5402581
111.540259
111.5403345
111.5401003
111.538
111.538
111.538
111.5401626
111.5401793
111.5401837
111.5401828
111.5401805
111.5401792
111.5401791
111.5401796
111.5401799
111.5401799
111.5401797
111.5401796
111.5401801
111.5401813
111.5401836
111.5401867
111.5401907
111.5401954
111.5402006
111.5402057
111.5402104
111.5402145
111.540218
111.5402211
111.540224
111.5402268
111.54023
111.5402325
111.540237
111.5402374
111.5402467
111.5402396
111.5402603
111.5402446
111.5402519
111.5403182
111.540101
111.538
111.538
111.538
111.5400345
111.5400901
111.5401029
111.5400991
111.5400918
111.5400886
111.5400894
111.5400912
111.540092
111.5400915
111.5400904
111.5400898
111.5400908
111.540094
111.5400998
111.540108
111.5401187
111.5401316
111.5401463
111.5401616
111.5401763
111.5401889
111.5401986
111.5402054
111.5402103
111.5402138
111.5402174
111.5402197
111.5402248
111.5402244
111.5402354
111.5402263
111.5402502
111.5402314
111.5402438
111.540303
111.5401001
111.538
111.538
111.538
111.5395221
111.5398593
111.5398848
111.5398532
111.5398265
111.5398374
111.5398581
111.53987
111.5398733
111.5398725
111.5398732
111.5398789
111.5398885
111.5398991
111.5399117
111.5399282
111.5399495
111.539976
111.5400082
111.5400455
111.5400851
111.5401225
111.5401533
111.5401754
111.5401898
111.540198
111.5402041
111.5402066
111.5402128
111.5402111
111.540224
111.5402128
111.5402395
111.540219
111.5402341
111.5402897
111.5400977
111.538
111.538
111.538
111.5356679
111.5381605
111.5381691
111.5378398
111.5378817
111.5382611
111.5386119
111.538799
111.5389079
111.5390171
111.5391657
111.5393341
111.5394695
111.5395425
111.5395773
111.539598
111.5396196
111.5396475
111.5396951
111.5397669
111.5398569
111.5399502
111.540033
111.5400969
111.5401414
111.5401679
111.5401848
111.5401912
111.5402004
111.5401978
111.5402126
111.5401995
111.5402282
111.5402069
111.5402239
111.5402763
111.5400948
111.538
111.538
111.538
111.538
111.5359751
111.5362099
111.5369887
111.5366133
111.5359082
111.5357342
111.5359127
111.5362475
111.5367312
111.5373541
111.5380191
111.5385283
111.5388081
111.5388753
111.5388042
111.538694
111.5386576
111.5387831
111.5390184
111.5392966
111.5395506
111.5397553
111.5399089
111.5400196
111.5400918
111.5401401
111.5401629
111.540183
111.5401832
111.5402007
111.5401871
111.5402157
111.5401951
111.5402127
111.5402667
111.5400858
111.538
111.538
111.538
111.538
111.538
111.538
111.538
111.538
111.538
111.538
111.538
111.538
111.538
111.5373563
111.5369879
111.536978
111.5369596
111.5367179
111.5365526
111.536634
111.5369413
111.5373405
111.5378545
111.5383939
111.5388775
111.5392662
111.5395578
111.5397719
111.539922
111.5400312
111.5400932
111.5401435
111.540159
111.540185
111.5401734
111.5402052
111.5401887
111.5401883
111.5402559
111.5400999
111.538
111.538
111.538
111.538
111.538
111.538
111.538
111.538
111.538
111.538
111.538
111.538
111.538
111.538
111.538
111.538
111.538
111.538
111.538
111.538
111.538
111.5376222
111.5375644
111.5377958
111.538192
111.5386284
111.5390235
111.5393424
111.5395864
111.5397807
111.5399164
111.5400355
111.5401045
111.5401607
111.5401529
111.5401663
111.5401837
111.5402224
111.5402292
111.540043
111.538
111.538
111.538
111.538
111.538
111.538
111.538
111.538
111.538
111.538
111.538
111.538
111.538
111.538
111.538
111.538
111.538
111.538
111.538
111.538
111.538
111.538
111.5376752
111.5373245
111.5372855
111.5375069
111.537853
111.5382169
111.5385668
111.5389027
111.5392093
111.5395236
111.5398061
111.5400808
111.5402141
111.5402039
111.5400671
111.5401008
111.5402819
111.5401195
111.538
111.538
111.538
111.538
111.538
111.538
111.538
111.538
111.538
111.538
111.538
111.538
111.538
111.538
111.538
111.538
111.538
111.538
111.538
111.538
111.538
111.538
111.538
111.5373339
111.5365165
111.5362529
111.5363041
111.536466
111.5366135
111.5367841
111.5370695
111.5375004
111.5380353
111.5389011
111.5398685
111.5404499
111.5404123
111.5401488
111.5401495
111.5400622
111.538
111.538
111.538
111.538
111.538
111.538
111.538
111.538
111.538
111.538
111.538
111.538
111.538
111.538
111.538
111.538
111.538
111.538
111.538
111.538
111.538
111.538
111.538
111.538
111.538
111.538
111.538
111.538
111.538
111.538
111.538
111.538
111.538
111.5374082
111.5376047
111.5393177
111.5404263
111.540357
111.5401944
111.5400043
111.538
111.538
111.538
111.538
111.538
111.538
111.538
111.538
111.538
111.538
111.538
111.538
111.538
111.538
111.538
111.538
111.538
111.538
111.538
111.538
111.538
111.538
111.538
111.538
111.538
111.538
111.538
111.538
111.538
111.538
111.538
111.538
111.538
111.538
111.5379736
111.5374026
111.5391591
111.5404299
111.5403538
111.540035
111.538
111.538
111.538
111.538
111.538
111.538
111.538
111.538
111.538
111.538
111.538
111.538
111.538
111.538
111.538
111.538
111.538
111.538
111.538
111.538
111.538
111.538
111.538
111.538
111.538
111.538
111.538
111.538
111.538
111.538
111.538
111.538
111.538
111.538
111.538
111.5379785
111.5379364
111.5395569
111.5404567
111.5401722
111.538
111.538
111.538
111.538
111.538
111.538
111.538
111.538
111.538
111.538
111.538
111.538
111.538
111.538
111.538
111.538
111.538
111.538
111.538
111.538
111.538
111.538
111.538
111.538
111.538
111.538
111.538
111.538
111.538
111.538
111.538
111.538
111.538
111.538
111.538
111.538
111.5377997
111.5389496
111.5400775
111.5401347
111.538
111.538
111.538
111.538
111.538
111.538
111.538
111.538
111.538
111.538
111.538
111.538
111.538
111.538
111.538
111.538
111.538
111.538
111.538
111.538
111.538
111.538
111.538
111.538
111.538
111.538
111.538
111.538
111.538
111.538
111.538
111.538
111.538
111.538
111.538
111.538
111.538002
111.5385892
111.5398287
111.5400714
111.538
111.538
111.538
111.538
111.538
111.538
111.538
111.538
111.538
111.538
111.538
111.538
111.538
111.538
111.538
111.538
111.538
111.538
111.538
111.538
111.538
111.538
111.538
111.538
111.538
111.538
111.538
111.538
111.538
111.538
111.538
111.538
111.538
111.538
111.538
111.538
111.538
111.5383606
111.5397425
111.5399792
111.538
111.538
111.538
111.538
111.538
111.538
111.538
111.538
111.538
111.538
111.538
111.538
111.538
111.538
111.538
111.538
111.538
111.538
111.538
111.538
111.538
111.538
111.538
111.538
111.538
111.538
111.538
111.538
111.538
111.538
111.538
111.538
111.538
111.538
111.538
111.538
111.538
111.538
111.538
111.5400443
111.538
111.538
111.538
111.538
111.538
111.538
111.538
111.538
111.538
111.538
111.538
111.538
111.538
111.538
111.538
111.538
111.538
111.538
111.538
111.538
111.538
111.538
111.538
111.538
111.538
111.538
111.538
111.538
111.538
111.538
111.538
111.538
111.538
111.538
111.538
111.538
111.538
111.538
111.538
111.538
111.538
111.538
111.538
111.538
111.538
111.538
111.538
111.538
111.538
111.538
111.538
111.538
111.538
111.538
111.538
111.538
111.538
111.538
111.538
111.538
111.538
111.538
111.538
111.538
111.538
111.538
111.538
111.538
111.538
111.538
111.538
111.538
111.538
111.538
111.538
111.538
111.538
111.538
111.538
111.538
111.538
111.538
111.538
111.538
111.538
111.538
111.538
111.538
111.538
111.538
111.538
111.538
111.538
111.538
111.538
111.538
111.538
111.538
111.538
111.538
111.538
111.538
111.538
111.538
111.538
111.538
111.538
111.538
111.538
111.538
111.538
111.538
111.538
111.538
111.538
111.538
111.538
111.538
111.538
111.538
111.538
111.538
111.538
111.538
111.538
111.538
111.538
111.538
111.538
111.538
111.538
111.538
111.538
111.538
111.538
111.538
111.538
111.538
111.538
111.538
111.538
111.538
111.538
111.538
111.538
111.538
111.538
111.538
111.538
111.538
111.538
111.538
111.538
111.538
111.538
111.538
111.538
111.538
111.538
111.538
111.538
111.538
111.538
111.538
111.538
111.538
111.538
111.538
111.538
111.538
111.538
111.538
111.538
111.538
111.538
111.538
111.538
111.538
111.538
111.538
111.538
111.538
111.538
111.538
111.538
111.538
111.538
111.538
111.538
111.538
111.538
111.538
111.538
111.538
111.538
111.538
111.538
111.538
111.538
111.538
111.538
111.538
111.538
111.538
111.538
111.538
111.538
111.538
111.538
111.538
111.538
111.538
111.538
111.538
111.538
111.538
111.538
111.538
111.538
111.538
111.538
111.538
111.538
111.538
111.538
111.538
111.538
111.538
111.538
111.538
111.538
111.538
111.538
111.538
111.538
111.538
111.538
111.538
111.538
111.538
111.538
111.538
111.538
111.538
111.538
111.538
111.538
111.538
111.538
111.538
111.538
111.538
111.538
111.538
111.538
111.538
111.538
111.538
111.538
111.538
111.538
111.538
111.538
111.538
111.538
111.538
111.538
111.538
111.538
111.538
111.538
111.538
111.538
111.538
111.538
111.538
111.538
111.538
111.538
111.538
111.538
111.538
111.538
111.538
111.538
111.538
111.538
111.538
111.538
111.538
111.538
111.538
111.538
111.538
111.538
111.538
111.538
111.538
111.538
111.538
111.538
111.538
111.538
111.538
111.538
111.538
111.538
111.538
111.538
111.538
111.538
111.538
111.538
111.538
111.538
111.538
111.538
111.538
111.538
111.538
111.538
112.0696511
111.9514823
111.538
111.538
111.5388818
111.5415062
111.5448551
111.5441565
111.5424786
111.5402881
111.5385276
111.538
111.538
111.538
111.538
111.538
111.538
111.538
111.538
111.538
111.538
111.538
111.538
111.538
111.538
111.538
111.538
111.538
111.538
111.538
111.538
111.538
111.7650465
112.1488468
112.1078875
112.1461314
112.2581165
112.0431394
112.2530743
112.5151646
112.1021632
112.2760611
111.538
111.5380942
111.5433795
111.559885
111.5968631
111.6003946
111.5833835
111.5622024
111.5488758
111.5424004
111.5394984
111.5381289
111.538
111.538
111.538
111.538
111.538
111.538
111.538
111.538
111.538
111.538
111.538
111.538
111.538
111.538
111.538
111.538
111.538
111.538
112.067201
112.2906695
112.3000255
112.2924261
112.1618871
112.2670684
112.2539268
112.1580825
112.3969598
112.3272768
111.538
111.5388008
111.5524613
111.6109036
111.7016813
111.7026764
111.6855362
111.6487487
111.5977434
111.5619676
111.5461802
111.5405457
111.5386136
111.538
111.538
111.538
111.538
111.538
111.538
111.538
111.538
111.538
111.538
111.538
111.538
111.538
111.538
111.538
111.538
111.6317261
112.3059235
112.3260994
112.3330006
112.3301899
112.3617701
112.3315096
112.3207303
112.3781935
112.2888528
112.3097945
111.538
111.5396126
111.5649592
111.6669335
111.7439129
111.741336
111.7303212
111.7148014
111.691022
111.6444378
111.5885061
111.5592152
111.5479593
111.5436166
111.5418279
111.5409751
111.5404267
111.5398886
111.5391904
111.5383727
111.538
111.538
111.538
111.538
111.538
111.538
111.538
111.538
111.6056232
112.2489968
112.3127272
112.3085966
112.3035352
112.306847
112.3104002
112.3198004
112.3236728
112.3072169
112.3283533
112.3119264
111.538
111.5403438
111.5764528
111.6993153
111.7693554
111.7683526
111.7635527
111.7559354
111.7426968
111.7257581
111.7047435
111.6739904
111.6439746
111.6267002
111.6211664
111.6220638
111.6236995
111.6204482
111.608691
111.5898727
111.570172
111.5562416
111.5497267
111.5493514
111.5537864
111.5777981
111.6295713
111.8066489
112.2532587
112.31443
112.3150734
112.3166221
112.3187516
112.3157887
112.3100242
112.3075413
112.3068178
112.3103548
112.3109859