/*--------------------------------*- C++ -*----------------------------------*\
| =========                 |                                                 |
| \\      /  F ield         | OpenFOAM: The Open Source CFD Toolbox           |
|  \\    /   O peration     | Version:  v1912                                 |
|   \\  /    A nd           | Website:  www.openfoam.com                      |
|    \\/     M anipulation  |                                                 |
\*---------------------------------------------------------------------------*/
FoamFile
{
    version     2.0;
    format      ascii;
    class       volVectorField;
    location    "1";
    object      U.gas_0;
}
// * * * * * * * * * * * * * * * * * * * * * * * * * * * * * * * * * * * * * //

dimensions      [0 1 -1 0 0 0 0];


internalField   nonuniform List<vector> 
4800
(
(0.0009698216194 5.046153395e-19 0.01190407647)
(0.001687747146 1.269082279e-18 0.01188720681)
(0.002664021259 -1.944072987e-17 0.01188738067)
(0.003666683154 -5.920299408e-18 0.01189295914)
(0.004663586243 2.049849628e-19 0.01190167245)
(0.005642485712 9.584212415e-19 0.01191302562)
(0.006595695626 5.211307932e-19 0.01192675756)
(0.007517221744 2.563384289e-18 0.01194270397)
(0.0084019522 -1.072591084e-17 0.01196069369)
(0.00924541143 -1.216753968e-17 0.0119805566)
(0.01004365314 3.208117009e-18 0.01200212038)
(0.01079322348 1.937736054e-17 0.01202520427)
(0.01149115803 1.777551012e-17 0.01204961812)
(0.01213499059 9.001707975e-18 0.01207516271)
(0.01272276604 2.426303862e-18 0.01210163051)
(0.01325305387 1.476176091e-19 0.01212880671)
(0.01372496033 1.06814665e-19 0.01215647042)
(0.01413813833 4.561734318e-19 0.012184396)
(0.0144927943 6.085144899e-19 0.01221235441)
(0.0147896921 5.92309739e-19 0.01224011458)
(0.01503015352 5.818180891e-19 0.01226744475)
(0.01521605559 5.827432022e-19 0.01229411392)
(0.01534982295 5.806064974e-19 0.01231989433)
(0.01543441167 5.564609682e-19 0.01234456845)
(0.01547328322 5.822097589e-19 0.01236791823)
(0.01547070061 5.60749817e-19 0.01238953471)
(0.01543156306 5.467603799e-19 0.01240928099)
(0.01536098387 5.919877601e-19 0.01242705732)
(0.01526472704 6.017874371e-19 0.01244245187)
(0.01514950025 6.009570475e-19 0.01245512952)
(0.01502299522 5.871778582e-19 0.01246465872)
(0.01489388678 5.64532527e-19 0.01247068417)
(0.0147738213 4.07291664e-19 0.01247144488)
(0.01467403941 1.293436285e-18 0.01246871374)
(0.01462621944 -3.256331538e-18 0.01244698259)
(0.0146128846 -4.189555714e-18 0.01245349459)
(0.01484259751 -4.696373191e-18 0.01229245901)
(0.01468375888 -4.485905866e-18 0.01270581901)
(0.01841400228 -4.07010197e-18 0.009155735265)
(0.01106786598 -1.943392266e-18 0.01992582958)
(0.001042405107 5.215056973e-19 0.02221448508)
(0.001791317853 1.393392186e-18 0.02217830437)
(0.002810485176 -2.061836513e-17 0.02218056218)
(0.003859507889 -6.685398738e-18 0.02219766566)
(0.004904310372 9.876440604e-20 0.02222405648)
(0.005931667771 1.041360166e-18 0.02225834051)
(0.00693343579 5.71960541e-19 0.02229978312)
(0.007903355938 2.761993283e-18 0.02234788774)
(0.008836170092 -1.08707008e-17 0.02240213621)
(0.009727297414 -1.314657406e-17 0.02246202833)
(0.01057269597 2.325073931e-18 0.02252704922)
(0.01136882785 1.976464164e-17 0.02259665727)
(0.01211265232 1.936907902e-17 0.02267028222)
(0.0128016321 1.053992834e-17 0.02274732621)
(0.01343374507 3.122766379e-18 0.02282716614)
(0.01400749718 2.51381296e-19 0.02290915673)
(0.01452193467 4.759138499e-20 0.02299263421)
(0.01497665426 4.2002049e-19 0.02307692017)
(0.01537181063 6.246410899e-19 0.02316132572)
(0.01570812091 6.133842127e-19 0.02324515558)
(0.01598686618 6.282703451e-19 0.02332771201)
(0.01620989022 6.263806207e-19 0.02340829883)
(0.01637959853 6.427765769e-19 0.02348622592)
(0.01649897117 6.21745799e-19 0.02356081462)
(0.01657159964 5.961541192e-19 0.02363136567)
(0.01660154172 6.276989316e-19 0.02369689453)
(0.01659346988 6.540293503e-19 0.02375681322)
(0.01655272749 6.356461945e-19 0.02381069311)
(0.01648516253 6.258799149e-19 0.02385747998)
(0.0163973646 6.145051834e-19 0.02389614525)
(0.01629689855 6.24049209e-19 0.02392542242)
(0.01619247031 6.386480933e-19 0.02394411647)
(0.01609474824 4.268808187e-19 0.02394773017)
(0.01601473081 1.410805926e-18 0.02394040197)
(0.01597366763 -3.09850561e-18 0.02388354719)
(0.01597051039 -3.927994582e-18 0.02389346541)
(0.01617754524 -4.687208331e-18 0.0234412459)
(0.01612599156 -4.92019613e-18 0.02455444423)
(0.01693225988 -4.414216006e-18 0.01631109428)
(0.008863678948 -2.456749601e-18 0.04568961724)
(0.001052925623 4.664751509e-19 0.01992880629)
(0.001806268776 1.399826784e-18 0.01989004959)
(0.002830446891 -2.059053214e-17 0.01989714605)
(0.003884231282 -6.712822305e-18 0.01992638552)
(0.004934006598 1.018501302e-19 0.01997080319)
(0.005966461663 1.040478218e-18 0.02002832169)
(0.006973346826 5.71052153e-19 0.02009779909)
(0.007948355489 2.767177216e-18 0.02017839577)
(0.008886173602 -1.08064525e-17 0.02026927208)
(0.009782149911 -1.314813958e-17 0.02036960175)
(0.01063219435 2.255775678e-18 0.02047852713)
(0.0114327315 1.971501738e-17 0.02059514493)
(0.01218068998 1.943893613e-17 0.02071850365)
(0.01287350692 1.05452659e-17 0.02084760547)
(0.01350913867 3.157351549e-18 0.02098141009)
(0.01408607303 2.444730648e-19 0.02111884)
(0.01460334106 5.545120587e-20 0.02125878642)
(0.01506052683 4.097640246e-19 0.02140011593)
(0.01545777463 5.951991598e-19 0.02154167723)
(0.01579579323 6.282801303e-19 0.02168230798)
(0.0160758575 6.78235099e-19 0.02182084117)
(0.01629980849 6.655664267e-19 0.02195611058)
(0.0164700553 6.43546896e-19 0.02208695354)
(0.01658958322 5.763142521e-19 0.02221220452)
(0.0166619547 5.997157601e-19 0.0223306593)
(0.01669120593 6.216254547e-19 0.02244098929)
(0.0166818631 6.221066604e-19 0.02254205533)
(0.01663913844 6.341264247e-19 0.02263289516)
(0.01656883294 6.309196327e-19 0.02271202075)
(0.01647731717 6.184445179e-19 0.02277776238)
(0.01637176231 6.055731589e-19 0.02282810382)
(0.0162603309 5.745716575e-19 0.0228609347)
(0.01615222485 4.879125876e-19 0.02287038772)
(0.01605719162 1.38297238e-18 0.02286112423)
(0.0159901131 -3.133388875e-18 0.0227834523)
(0.01595075461 -3.800464784e-18 0.02278887067)
(0.01601624609 -4.602529601e-18 0.0221462898)
(0.01588888813 -5.111379711e-18 0.02371249475)
(0.01550449187 -4.175214505e-18 0.01395027603)
(0.007565611911 -2.462070733e-18 0.05738953673)
(0.001063925476 4.664767151e-19 0.01848301096)
(0.001824428029 1.387167681e-18 0.01844465921)
(0.002857568373 -2.056056538e-17 0.0184582236)
(0.003919976559 -6.740613276e-18 0.01850014069)
(0.004978188588 7.912824826e-20 0.01856287481)
(0.006018884639 1.038299356e-18 0.01864388301)
(0.007033740621 5.723906293e-19 0.0187416594)
(0.008016356977 2.775288793e-18 0.01885503219)
(0.008961335218 -1.07434577e-17 0.01898286419)
(0.009863955129 -1.315768248e-17 0.01912400001)
(0.0107200606 2.165326649e-18 0.01927723611)
(0.01152601716 1.968046733e-17 0.01944130447)
(0.01227870097 1.945231275e-17 0.01961486924)
(0.01297550311 1.063558319e-17 0.01979652947)
(0.01361433997 3.183520229e-18 0.01998482454)
(0.01419366545 2.563135282e-19 0.02017824148)
(0.01471248266 4.822385223e-20 0.0203752234)
(0.01517035371 3.975089343e-19 0.02057417865)
(0.01556740692 6.259137164e-19 0.02077349042)
(0.01590434117 6.591412401e-19 0.02097152615)
(0.01618242753 7.046654429e-19 0.02116664614)
(0.01640350909 6.582423487e-19 0.02135721002)
(0.01656999942 6.57588856e-19 0.02154157873)
(0.01668487679 6.270648194e-19 0.02171810744)
(0.01675165992 6.138657249e-19 0.02188512685)
(0.0167743465 6.270617637e-19 0.02204093719)
(0.01675742359 6.287486178e-19 0.02218393878)
(0.0167059913 6.663962617e-19 0.0223125917)
(0.0166257126 6.315798068e-19 0.02242499684)
(0.01652273512 6.231685383e-19 0.02251898246)
(0.01640380642 6.141419306e-19 0.02259191334)
(0.01627634413 5.940929239e-19 0.02264097346)
(0.0161482757 3.802760331e-19 0.02265972917)
(0.01602767818 1.418991286e-18 0.02265277385)
(0.01592234449 -3.25057851e-18 0.02256693502)
(0.01583242469 -3.907916871e-18 0.02257219699)
(0.01575958451 -4.647040248e-18 0.02186677605)
(0.01546836874 -5.125853871e-18 0.02365996141)
(0.01456107182 -4.076733233e-18 0.01347506031)
(0.006874080881 -2.357140507e-18 0.06870105659)
(0.001077078033 4.677750003e-19 0.01696922106)
(0.001846991246 1.424096148e-18 0.01693214365)
(0.002892434589 -2.053089064e-17 0.01695314088)
(0.003967004386 -6.780271143e-18 0.01700831151)
(0.005037075238 6.777322133e-20 0.01708978672)
(0.006089262998 1.046142324e-18 0.01719469954)
(0.007115155431 5.706340934e-19 0.0173212245)
(0.008108254413 2.783660649e-18 0.0174678866)
(0.009063065148 -1.066338087e-17 0.0176332441)
(0.009974780375 -1.31959118e-17 0.01781581562)
(0.01083916291 1.978461896e-18 0.01801404974)
(0.01165250399 1.956667278e-17 0.01822631009)
(0.01241161305 1.947448022e-17 0.01845087226)
(0.0131138219 1.068534515e-17 0.01868592749)
(0.01375699528 3.228861938e-18 0.01892958994)
(0.01433954312 2.681004779e-19 0.01917990604)
(0.01486043236 5.210145495e-20 0.01943486541)
(0.01531919689 4.274987483e-19 0.01969241272)
(0.01571594477 6.21128596e-19 0.01995046004)
(0.01605136233 6.615727471e-19 0.02020689905)
(0.01632671487 6.627393426e-19 0.02045961212)
(0.01654384371 6.35518009e-19 0.0207064811)
(0.01670515833 6.305389533e-19 0.0209453919)
(0.01681362013 6.353875351e-19 0.02117423402)
(0.01687271262 6.195004897e-19 0.02139089852)
(0.01688640402 6.457265761e-19 0.02159328912)
(0.01685915428 6.427328607e-19 0.02177936486)
(0.01679596323 6.702731498e-19 0.02194707763)
(0.01670232983 6.377087756e-19 0.02209412659)
(0.01658416764 6.1375912e-19 0.02221794151)
(0.0164477834 5.870479e-19 0.02231544176)
(0.01629982445 6.267354641e-19 0.02238339647)
(0.01614705876 4.210731321e-19 0.02241517765)
(0.01599629836 1.468727696e-18 0.0224153269)
(0.01585020317 -3.252567967e-18 0.02233347615)
(0.01571398684 -4.03290119e-18 0.02234043118)
(0.01555326756 -4.699160741e-18 0.02165931582)
(0.01513678234 -5.086445608e-18 0.02351747078)
(0.0138767617 -4.040661581e-18 0.01350130437)
(0.006395205941 -2.231043939e-18 0.07935694879)
(0.001092932237 4.539245824e-19 0.01543766925)
(0.001874509926 1.436432322e-18 0.01540204802)
(0.002935488245 -2.049101561e-17 0.01543104714)
(0.00402564321 -6.817522027e-18 0.01550000215)
(0.005110952383 4.928572665e-20 0.0156007179)
(0.006177882251 1.04127858e-18 0.01573007005)
(0.007217897624 5.760765669e-19 0.01588594151)
(0.008224381785 2.785081621e-18 0.01606657041)
(0.009191726028 -1.058054426e-17 0.01627020971)
(0.01011501749 -1.319858162e-17 0.01649505058)
(0.01098992128 1.848689948e-18 0.01673919063)
(0.01181263903 1.940470777e-17 0.01700062036)
(0.0125798992 1.946596808e-17 0.01727722121)
(0.01328896163 1.079312904e-17 0.01756677066)
(0.01393762823 3.289285503e-18 0.01786695119)
(0.0145242555 2.791429705e-19 0.01817536194)
(0.01504776662 5.421010735e-20 0.01848953209)
(0.01550766147 4.051648231e-19 0.01880693543)
(0.01590402382 6.428204785e-19 0.01912500579)
(0.01623752464 6.724843152e-19 0.01944115238)
(0.01650942111 6.906503855e-19 0.01975277433)
(0.01672155019 6.479385433e-19 0.02005727324)
(0.0168763156 6.561284359e-19 0.02035206296)
(0.01697666655 6.461942451e-19 0.02063457655)
(0.01702606881 6.341464215e-19 0.02090227324)
(0.01702847627 6.533497247e-19 0.02115264792)
(0.01698832338 6.492797259e-19 0.02138323355)
(0.01691052636 6.824422405e-19 0.02159154096)
(0.01680042732 6.260976736e-19 0.02177490427)
(0.01666370835 6.013075525e-19 0.0219304285)
(0.01650629351 6.007426097e-19 0.02205476079)
(0.01633422941 6.335928379e-19 0.02214447221)
(0.01615329818 4.12018166e-19 0.02219308188)
(0.01596955849 1.420501649e-18 0.02220469426)
(0.01578348298 -3.153447237e-18 0.02213573142)
(0.01560719635 -4.107715949e-18 0.02214110134)
(0.01539221991 -4.799955386e-18 0.02152639068)
(0.01516049193 -5.133667842e-18 0.02330882041)
(0.01377157522 -3.944465212e-18 0.01395059404)
(0.006178070267 -2.123208441e-18 0.08957065955)
(0.001111813376 4.667763425e-19 0.01388109571)
(0.001907378392 1.461198798e-18 0.01384680948)
(0.002987141066 -2.04420121e-17 0.01388417014)
(0.00409629047 -6.867530269e-18 0.01396740549)
(0.00520022559 3.835578157e-20 0.01408792414)
(0.006285178844 1.058760275e-18 0.01424236206)
(0.007342447861 5.704587342e-19 0.01442832132)
(0.008365269297 2.783567657e-18 0.01464375963)
(0.009347898505 -1.047606426e-17 0.01488662333)
(0.01028529698 -1.323386978e-17 0.01515477221)
(0.01117301411 1.744912598e-18 0.01544594787)
(0.01200714567 1.930130802e-17 0.0157577615)
(0.01278432449 1.957540647e-17 0.01608769343)
(0.01350172529 1.091746642e-17 0.01643309988)
(0.01415707566 3.366708567e-18 0.01679122382)
(0.0147486689 3.001615658e-19 0.01715920884)
(0.01527537641 5.244854682e-20 0.01753411508)
(0.01573665793 3.990879898e-19 0.01791293679)
(0.01613256846 6.490468925e-19 0.018292621)
(0.01646376083 6.82699031e-19 0.01867008668)
(0.01673148287 6.83115279e-19 0.01904224352)
(0.01693756828 6.364878455e-19 0.01940600957)
(0.01708442024 6.2980735e-19 0.01975832674)
(0.0171749878 6.520890473e-19 0.02009617407)
(0.01721273725 6.462072276e-19 0.0204165789)
(0.01720162289 6.578320834e-19 0.02071662402)
(0.01714606308 6.61266193e-19 0.02099343571)
(0.01705091152 6.815105425e-19 0.02124413377)
(0.01692138948 6.546810652e-19 0.02146573045)
(0.01676298733 6.361098425e-19 0.02165507035)
(0.01658133626 6.06970381e-19 0.02180864407)
(0.01638206493 6.087296199e-19 0.02192295594)
(0.01617030673 3.915708923e-19 0.02199198028)
(0.01595172639 1.471699724e-18 0.02201877745)
(0.01572616191 -3.035031824e-18 0.02196829586)
(0.01550948091 -4.203025492e-18 0.02196888313)
(0.01524824385 -4.915669103e-18 0.02143832926)
(0.01497606625 -5.245647239e-18 0.0229429485)
(0.01323796487 -3.875666004e-18 0.01474063814)
(0.005753245525 -1.967369558e-18 0.09941313545)
(0.001133928826 4.530486795e-19 0.01229525667)
(0.001945892423 1.449847329e-18 0.01226203931)
(0.00304776377 -2.038820885e-17 0.01230801773)
(0.004179363303 -6.935793767e-18 0.01240601996)
(0.005305359669 2.530721946e-20 0.01254696679)
(0.006411674045 1.059898171e-18 0.01272724614)
(0.00748938998 5.731894555e-19 0.01294417657)
(0.008531565414 2.787930269e-18 0.01319543367)
(0.009532294932 -1.035166155e-17 0.01347865276)
(0.01048639295 -1.324519245e-17 0.01379135615)
(0.01138927409 1.501992483e-18 0.01413092235)
(0.01223691135 1.912551042e-17 0.01449457535)
(0.01302582676 1.965280228e-17 0.01487938596)
(0.01375309638 1.108720809e-17 0.0152822802)
(0.01441636156 3.461292848e-18 0.01570005218)
(0.01501384225 3.257212377e-19 0.01612938018)
(0.01554434971 5.299910095e-20 0.01656684517)
(0.01600729709 4.203425892e-19 0.01700895153)
(0.01640270629 6.355532276e-19 0.01745214939)
(0.01673120995 6.761107313e-19 0.01789285801)
(0.0169940474 6.829134726e-19 0.0183274896)
(0.01719305364 6.605985e-19 0.01875247248)
(0.01733064091 6.626401911e-19 0.01916427257)
(0.01740977314 6.640999773e-19 0.01955941206)
(0.01743393544 6.442221718e-19 0.01993448361)
(0.01740710029 6.579096072e-19 0.02028615859)
(0.01733368922 6.638843684e-19 0.02061117471)
(0.01721852386 6.881545556e-19 0.02090629695)
(0.01706675041 6.576419261e-19 0.02116825106)
(0.01688373063 5.933308349e-19 0.02139367525)
(0.0166749021 6.041333263e-19 0.02157896871)
(0.01644563948 5.902031882e-19 0.02172064079)
(0.01620072905 4.209858631e-19 0.02181328193)
(0.01594556597 1.472166669e-18 0.02185853766)
(0.01568036539 -2.881420096e-18 0.02182997554)
(0.01542359854 -4.226451384e-18 0.02182490201)
(0.01510893313 -5.046796295e-18 0.0213935779)
(0.01466670531 -5.272196567e-18 0.0224681196)
(0.01261123639 -3.746327806e-18 0.01587719437)
(0.005355306015 -1.88220586e-18 0.1089167029)
(0.001159442868 4.397052521e-19 0.01067543971)
(0.001990312944 1.460629555e-18 0.01064294129)
(0.003117722639 -2.03350143e-17 0.01069774738)
(0.004275313418 -6.992011674e-18 0.01081101732)
(0.005426885669 9.031927088e-21 0.01097308662)
(0.006557979035 1.063447999e-18 0.011180074)
(0.007659416151 5.645984341e-19 0.01142900282)
(0.008724042248 2.79463638e-18 0.01171725772)
(0.009745764728 -1.019298744e-17 0.01204215514)
(0.01071922843 -1.32212713e-17 0.01240087134)
(0.01163969347 1.21261102e-18 0.01279041261)
(0.01250299257 1.889010138e-17 0.01320760615)
(0.01330552132 1.971236382e-17 0.01364910323)
(0.01404424319 1.123030864e-17 0.01411138933)
(0.01471670104 3.570056694e-18 0.0145907989)
(0.01532103085 3.580361184e-19 0.01508353359)
(0.01585597509 5.200912196e-20 0.01558568348)
(0.01632089376 4.320599611e-19 0.01609325104)
(0.01671577166 6.556224553e-19 0.01660217735)
(0.01704122025 6.856648066e-19 0.01710837027)
(0.017298473 7.026215754e-19 0.01760773361)
(0.01748937333 6.735850288e-19 0.01809619628)
(0.01761635457 6.751681877e-19 0.0185697399)
(0.0176824123 6.799985796e-19 0.01902442303)
(0.01769107023 6.561346568e-19 0.01945639924)
(0.01764634076 6.67109367e-19 0.01986192886)
(0.01755267564 6.695190805e-19 0.02023737414)
(0.01741490253 7.005539139e-19 0.02057917073)
(0.01723814203 6.559961374e-19 0.02088378371)
(0.01702770099 6.195809946e-19 0.02114767873)
(0.01678892434 5.776347813e-19 0.02136720294)
(0.01652706478 6.678287288e-19 0.0215388976)
(0.0162467754 4.675025969e-19 0.02165802045)
(0.01595326635 1.498770146e-18 0.02172474024)
(0.01564697022 -2.868498611e-18 0.0217205977)
(0.0153484882 -4.264692299e-18 0.02170967556)
(0.01498139118 -5.136563422e-18 0.02139543905)
(0.01438066814 -5.18145919e-18 0.02202311974)
(0.01210338724 -3.634950675e-18 0.01726527283)
(0.005057485003 -1.784032502e-18 0.1181014195)
(0.001188506982 4.308992556e-19 0.009016717265)
(0.002040895544 1.465427335e-18 0.008984527802)
(0.00319739963 -2.026740864e-17 0.009048356066)
(0.004384636569 -7.050135472e-18 0.009177427399)
(0.005565405109 -1.628022914e-20 0.009361390894)
(0.006724797552 1.061883513e-18 0.009596068226)
(0.00785332942 5.594634183e-19 0.009878170705)
(0.008943598348 2.799261707e-18 0.01020477656)
(0.009989297406 -1.002497283e-17 0.01057287202)
(0.01098487868 -1.321556736e-17 0.01097927637)
(0.01192542752 9.643052885e-19 0.01142061239)
(0.01280661848 1.862929063e-17 0.01189329912)
(0.01362470474 1.974734787e-17 0.01239355674)
(0.01437652289 1.142061886e-17 0.01291741839)
(0.01505950461 3.698109553e-18 0.01346074662)
(0.01567169097 3.89811738e-19 0.0140192537)
(0.01621174664 3.698114792e-20 0.01458852537)
(0.01667897189 4.308336761e-19 0.01516404812)
(0.01707331068 6.572204829e-19 0.01574123956)
(0.01739535308 7.010331123e-19 0.01631548161)
(0.0176463307 7.170528307e-19 0.01688215547)
(0.01782810404 6.905822529e-19 0.01743667712)
(0.01794314118 6.902526156e-19 0.01797453157)
(0.01799448758 6.660434125e-19 0.01849130343)
(0.01798572776 6.495177271e-19 0.01898270031)
(0.01792093951 6.771839872e-19 0.01944456959)
(0.01780463702 6.867845853e-19 0.01987290445)
(0.01764169708 7.019155341e-19 0.02026382733)
(0.0174372697 6.532022246e-19 0.02061356012)
(0.01719667452 6.285585645e-19 0.02091841023)
(0.01692525692 5.975009842e-19 0.0211746944)
(0.01662827547 6.741823996e-19 0.02137898199)
(0.01631043049 4.978133413e-19 0.02152718142)
(0.01597685556 1.480787818e-18 0.02161811835)
(0.01562761623 -2.856929777e-18 0.02164111543)
(0.01527923979 -4.284935286e-18 0.021628487)
(0.01486362891 -5.202423803e-18 0.02143523021)
(0.01414918625 -5.140236168e-18 0.02163491451)
(0.01166878678 -3.518890214e-18 0.01880915874)
(0.004788776207 -1.718470184e-18 0.1270003466)
(0.001221274796 4.255876971e-19 0.007313940823)
(0.002097907166 1.485969007e-18 0.007281598103)
(0.003287206416 -2.018239618e-17 0.007354644715)
(0.004507881598 -7.132818909e-18 0.007500097912)
(0.005721595724 -6.960412846e-20 0.00770681393)
(0.006912930236 1.059733337e-18 0.007970284539)
(0.008072047674 5.569246458e-19 0.008286890284)
(0.009191262657 2.803135555e-18 0.008653380432)
(0.01026402662 -9.831133824e-18 0.009066396774)
(0.01128457529 -1.319132871e-17 0.009522388184)
(0.01224779871 7.41395929e-19 0.01001758048)
(0.01314919514 1.834322342e-17 0.01054797138)
(0.01398485918 1.980388621e-17 0.01110933694)
(0.01475148594 1.162797825e-17 0.01169724479)
(0.01544638286 3.825701154e-18 0.01230707199)
(0.01606748473 4.127070714e-19 0.01293402712)
(0.01661336903 2.616695273e-20 0.01357317639)
(0.01708326948 4.135785853e-19 0.01421947409)
(0.01747708551 7.094545827e-19 0.01486779732)
(0.01779538602 7.15250869e-19 0.01551298435)
(0.01803940551 6.971798645e-19 0.01614987591)
(0.01821103126 6.962774294e-19 0.0167733576)
(0.01831278088 7.059991702e-19 0.01737840151)
(0.01834776956 6.051207086e-19 0.01796010414)
(0.01831966721 6.51013624e-19 0.01851371698)
(0.01823264613 6.890637633e-19 0.01903466929)
(0.01809131808 6.964079531e-19 0.01951858496)
(0.01790065472 7.014679896e-19 0.01996127993)
(0.01766589244 6.694819034e-19 0.02035874223)
(0.01739243058 6.497028694e-19 0.02070712543)
(0.0170856917 6.459984005e-19 0.02100272069)
(0.01675103582 6.696576841e-19 0.02124210076)
(0.01639335621 5.433466027e-19 0.02142175507)
(0.01601784227 1.493851246e-18 0.02153940455)
(0.01562547584 -2.752722577e-18 0.02159154359)
(0.0152354475 -4.305233189e-18 0.02158066293)
(0.01477508995 -5.173240877e-18 0.02150782359)
(0.01394441162 -5.163372428e-18 0.02128380115)
(0.01127566277 -3.414189769e-18 0.02049825707)
(0.004547162078 -1.650456952e-18 0.1356442834)
(0.00125791004 4.529550774e-19 0.005561732462)
(0.002161636158 1.514220379e-18 0.005528722674)
(0.003387594518 -2.010198573e-17 0.005611195313)
(0.004645658741 -7.21748426e-18 0.005773668675)
(0.005896217978 -9.545235304e-20 0.006004091674)
(0.007123280074 1.04527275e-18 0.006297587657)
(0.008316608679 5.315667158e-19 0.006650188648)
(0.009468199549 2.808278437e-18 0.007058284195)
(0.01057123526 -9.60521554e-18 0.007518155103)
(0.01161971133 -1.318380961e-17 0.008025863894)
(0.01260830186 3.325272513e-19 0.008577223752)
(0.01353231074 1.804687736e-17 0.009167796112)
(0.01438765768 1.982220865e-17 0.00979289847)
(0.01517088152 1.183064609e-17 0.01044761847)
(0.01587915203 3.960523207e-18 0.01112683284)
(0.01651028579 4.186879661e-19 0.01182523068)
(0.01706276321 -2.06520107e-20 0.01253734167)
(0.0175357441 3.786876808e-19 0.01325756952)
(0.01792907943 6.263239347e-19 0.01398023083)
(0.01824331708 6.924598086e-19 0.01469959918)
(0.01847969942 7.059170126e-19 0.01540995307)
(0.01864015089 6.785921476e-19 0.01610562611)
(0.01872725442 6.841898868e-19 0.01678105694)
(0.01874421626 6.858817965e-19 0.01743083562)
(0.01869481858 6.797342155e-19 0.01804974308)
(0.01858336035 6.89397142e-19 0.01863278164)
(0.01841458859 6.803035557e-19 0.01917520008)
(0.01819361599 6.948991626e-19 0.01967250567)
(0.0179258219 6.553256182e-19 0.02012045418)
(0.01761674864 6.185150653e-19 0.02051504423)
(0.01727196734 5.895254623e-19 0.0208525365)
(0.0168970134 6.678946206e-19 0.02112947476)
(0.01649702214 4.862905121e-19 0.02134284912)
(0.01607756023 1.539015788e-18 0.02148935205)
(0.01564082321 -2.819247018e-18 0.02157141717)
(0.01520680179 -4.297845371e-18 0.02156188027)
(0.01470411822 -5.273102377e-18 0.02161238453)
(0.01378377484 -5.160659985e-18 0.02096117686)
(0.01093321768 -3.352966072e-18 0.02233312809)
(0.004323219499 -1.534924411e-18 0.1440539403)
(0.001298591379 4.402396097e-19 0.003754466539)
(0.002232399019 1.525799306e-18 0.00372022134)
(0.003499063177 -1.99999627e-17 0.003812345193)
(0.0047986475 -7.312050818e-18 0.003992544215)
(0.006090122343 -1.441930583e-19 0.004247735284)
(0.007356858819 1.042296033e-18 0.004572626108)
(0.008588176163 5.392160707e-19 0.004962886182)
(0.009775715076 2.824989074e-18 0.005414504964)
(0.01091236181 -9.379371684e-18 0.005923384353)
(0.01199184757 -1.317362718e-17 0.006485181559)
(0.01300861029 -9.036300149e-21 0.007095279145)
(0.01395774163 1.770740971e-17 0.007748785647)
(0.01483497025 1.9856329e-17 0.008440544184)
(0.01563666373 1.206115803e-17 0.009165146891)
(0.0163598403 4.11600822e-18 0.00991695413)
(0.01700218585 4.47277255e-19 0.01069011849)
(0.01756207296 -6.537069844e-20 0.01147861435)
(0.0180385794 3.511839093e-19 0.01227627405)
(0.01843150295 6.06313066e-19 0.0130768309)
(0.01874137021 6.650334145e-19 0.01387396906)
(0.01896943628 6.806297839e-19 0.01466137893)
(0.01911767333 6.740494963e-19 0.01543281604)
(0.01918874642 6.741986764e-19 0.01618216039)
(0.01918597561 7.055958991e-19 0.01690347276)
(0.01911328403 7.039429231e-19 0.01759104445)
(0.0189751323 7.105849681e-19 0.01823943724)
(0.01877644293 7.008874859e-19 0.01884351486)
(0.0185225156 6.990149296e-19 0.01939846666)
(0.018218926 6.62782906e-19 0.01989981089)
(0.01787141805 6.255160626e-19 0.02034338692)
(0.0174857753 6.144045909e-19 0.02072541253)
(0.0170677778 6.752975879e-19 0.0210423697)
(0.01662284959 5.293440285e-19 0.02129169877)
(0.01615688779 1.540477249e-18 0.02146899072)
(0.01567257614 -2.804631644e-18 0.02158200826)
(0.01518920112 -4.301351472e-18 0.02157552224)
(0.01464404506 -5.314138244e-18 0.02174367202)
(0.01363412867 -5.185274948e-18 0.02065314716)
(0.01061213065 -3.287198369e-18 0.0243144946)
(0.004116233345 -1.479810755e-18 0.1522482981)
(0.001343515947 4.386615198e-19 0.001886245454)
(0.002310545701 1.561425128e-18 0.0018501372)
(0.003622165904 -1.9880753e-17 0.001952159166)
(0.004967604054 -7.427232434e-18 0.002150864775)
(0.006304257303 -1.993727729e-19 0.002432003826)
(0.007614794418 1.054634618e-18 0.002789807085)
(0.008888047303 5.538404895e-19 0.003219571786)
(0.01011526482 2.842761887e-18 0.00371683929)
(0.01128900784 -9.133067269e-18 0.004277112504)
(0.01240271975 -1.315756889e-17 0.004895620607)
(0.01345058289 -3.128016118e-19 0.005567295371)
(0.01442745934 1.72714948e-17 0.006286774195)
(0.01532887081 1.984741233e-17 0.007048408891)
(0.01615099858 1.233892531e-17 0.007846279647)
(0.01689069507 4.304274491e-18 0.00867421364)
(0.01754550203 4.832822612e-19 0.009525808696)
(0.01811367247 -9.543127219e-20 0.01039446357)
(0.01859419267 3.121289861e-19 0.01127341618)
(0.01898680139 5.35233696e-19 0.01215579066)
(0.01929200264 5.479697733e-19 0.01303465324)
(0.01951106864 6.404191746e-19 0.01390307595)
(0.01964603004 6.492685757e-19 0.0147542052)
(0.01969965143 6.347091357e-19 0.01558133213)
(0.01967539079 7.506431442e-19 0.01637796039)
(0.01957734276 7.272873409e-19 0.01713786761)
(0.01941016686 7.068454256e-19 0.01785515599)
(0.01917900432 7.045493055e-19 0.01852429043)
(0.01888938815 6.629066495e-19 0.01914012923)
(0.01854714046 6.874269099e-19 0.01969794248)
(0.01815826244 6.632984911e-19 0.02019340219)
(0.01772880773 6.457260224e-19 0.02062266811)
(0.01726485443 6.769661385e-19 0.02098212828)
(0.0167721585 5.996827329e-19 0.02126964295)
(0.01625697419 1.52872969e-18 0.02147968148)
(0.01572235516 -2.711656256e-18 0.02162523337)
(0.01518701739 -4.334915806e-18 0.02162450939)
(0.01459154556 -5.357774298e-18 0.02190378416)
(0.01346928308 -5.249859636e-18 0.02037107117)
(0.01029393003 -3.134756946e-18 0.02641056546)
(0.003927008687 -1.405291328e-18 0.1602474164)
(0.001392902494 4.396493708e-19 -4.912937986e-05)
(0.002396464629 1.606989799e-18 -8.779327227e-05)
(0.003757517165 -1.975130913e-17 2.439935288e-05)
(0.005153369044 -7.528454388e-18 0.0002424750235)
(0.006539678865 -2.51655428e-19 0.0005508750538)
(0.007898339818 1.064747825e-18 0.0009432719684)
(0.009217661391 5.634726804e-19 0.001414575973)
(0.0104884633 2.869082075e-18 0.001959839966)
(0.01170294682 -8.855287186e-18 0.002574136788)
(0.012854247 -1.311028398e-17 0.003252241946)
(0.01393627221 -8.234535787e-19 0.003988614269)
(0.01494363847 1.681787441e-17 0.004777400314)
(0.01587164503 1.985655504e-17 0.005612442717)
(0.01671627195 1.25889871e-17 0.006487292749)
(0.01747419095 4.521895998e-18 0.007395227064)
(0.01814278529 5.410164334e-19 0.008329269736)
(0.01872017503 -1.041949023e-19 0.009282222148)
(0.01920524389 2.757519769e-19 0.0102467026)
(0.01959766396 5.929362437e-19 0.01121519706)
(0.01989791396 6.582987206e-19 0.01218012128)
(0.02010728671 6.467745847e-19 0.01313389375)
(0.02022788194 6.491098736e-19 0.0140690154)
(0.02026258185 6.62095112e-19 0.01497815264)
(0.02021500777 6.784562258e-19 0.01585421877)
(0.02008945835 6.768575062e-19 0.01669044837)
(0.01989083151 7.065830195e-19 0.01748045922)
(0.01962453321 7.073767078e-19 0.01821829909)
(0.01929637843 7.320684875e-19 0.01889848087)
(0.01891248563 6.840589412e-19 0.01951601202)
(0.01847916711 6.716597804e-19 0.02006638482)
(0.01800280148 6.410535274e-19 0.02054568637)
(0.01748980541 7.38552897e-19 0.02095018938)
(0.01694627985 5.547854932e-19 0.02127815777)
(0.01637893927 1.60396204e-18 0.02152285483)
(0.01579121367 -2.748823942e-18 0.02170261279)
(0.01520053406 -4.332461093e-18 0.02171070127)
(0.01455015326 -5.43626412e-18 0.02209866119)
(0.01330896975 -5.207344522e-18 0.02013165727)
(0.00998674983 -3.144485296e-18 0.02859232271)
(0.003748222365 -1.342877647e-18 0.1680659137)
(0.001446994638 4.41353713e-19 -0.002058191169)
(0.00249058812 1.647632639e-18 -0.002100174152)
(0.003905799689 -1.962855283e-17 -0.001977507644)
(0.005356868659 -7.661177889e-18 -0.001739104077)
(0.006797551084 -3.069065671e-19 -0.001401988043)
(0.008208888379 1.083520718e-18 -0.0009731358574)
(0.009578617407 5.799138832e-19 -0.00045805342)
(0.01089709481 2.880824236e-18 0.0001377925263)
(0.0121561344 -8.577113917e-18 0.0008090018925)
(0.0133485416 -1.30884487e-17 0.001549867776)
(0.01446793376 -1.191496303e-18 0.002354351926)
(0.0155086655 1.631826717e-17 0.00321608903)
(0.01646579902 1.982213432e-17 0.004128394082)
(0.01733509825 1.289734642e-17 0.005084272333)
(0.01811303883 4.737349947e-18 0.006076432598)
(0.01879682978 5.923525074e-19 0.007097305889)
(0.01938444298 -1.223701354e-19 0.008139073476)
(0.01987464617 2.409191293e-19 0.009193706865)
(0.02026703473 5.608135273e-19 0.01025302177)
(0.0205620573 5.776590469e-19 0.01130874656)
(0.02076102937 6.109320839e-19 0.01235260568)
(0.02086612989 6.282643116e-19 0.01337641211)
(0.02088037753 6.39474797e-19 0.01437216545)
(0.02080758418 6.561257446e-19 0.01533214937)
(0.02065228753 6.774029047e-19 0.01624902011)
(0.02041966581 6.948181506e-19 0.01711588086)
(0.02011543771 7.115383232e-19 0.01792633883)
(0.01974575275 7.028176959e-19 0.01867454528)