/*--------------------------------*- C++ -*----------------------------------*\
| =========                 |                                                 |
| \\      /  F ield         | OpenFOAM: The Open Source CFD Toolbox           |
|  \\    /   O peration     | Version:  v1912                                 |
|   \\  /    A nd           | Website:  www.openfoam.com                      |
|    \\/     M anipulation  |                                                 |
\*---------------------------------------------------------------------------*/
FoamFile
{
    version     2.0;
    format      ascii;
    class       volVectorField;
    location    "1";
    object      U.gas;
}
// * * * * * * * * * * * * * * * * * * * * * * * * * * * * * * * * * * * * * //

dimensions      [0 1 -1 0 0 0 0];


internalField   nonuniform List<vector> 
4800
(
(0.0009734030012 5.0519743e-19 0.01190156791)
(0.00169404535 1.273996468e-18 0.01188459142)
(0.002674004511 -1.944588715e-17 0.01188476552)
(0.003680413331 -5.943864335e-18 0.01189038333)
(0.004680979265 1.983748129e-19 0.01189915844)
(0.005663393746 9.601184593e-19 0.01191059181)
(0.006619926433 5.215961602e-19 0.01192442009)
(0.007544547046 2.56763108e-18 0.01194047732)
(0.008432113335 -1.069960127e-17 0.01195859055)
(0.009278124406 -1.218182708e-17 0.01197858784)
(0.01007861337 3.151006817e-18 0.01200029507)
(0.01083011042 1.934022697e-17 0.01202352965)
(0.01152963973 1.780453615e-17 0.01204809959)
(0.01217472821 9.053001017e-18 0.01207380383)
(0.01276341828 2.455862869e-18 0.01210043305)
(0.01329428119 1.534314031e-19 0.0121277707)
(0.01376642899 1.041857877e-19 0.01215559423)
(0.01417952412 4.542313693e-19 0.01218367647)
(0.01453378601 6.083461664e-19 0.01221178694)
(0.01482999451 5.929788016e-19 0.01223969331)
(0.01506949008 5.825071952e-19 0.01226716272)
(0.01525417042 5.833777717e-19 0.0122939633)
(0.01538648216 5.812222294e-19 0.01231986683)
(0.01546940333 5.567257395e-19 0.01234465625)
(0.01550642012 5.827855529e-19 0.01236810942)
(0.0155018388 5.615002208e-19 0.01238980899)
(0.01546057806 5.465788203e-19 0.01240964283)
(0.01538775646 5.92515416e-19 0.01242749546)
(0.01528916948 6.017364365e-19 0.01244295266)
(0.01517155328 6.014637929e-19 0.0124556837)
(0.01504262218 5.878259637e-19 0.01246525642)
(0.01491107102 5.653864828e-19 0.01247131771)
(0.01478857211 4.078132896e-19 0.01247210051)
(0.01468639185 1.291833779e-18 0.01246938325)
(0.01463628549 -3.258642402e-18 0.01244761743)
(0.0146207137 -4.181201637e-18 0.01245418083)
(0.01484824638 -4.691900695e-18 0.01229310309)
(0.0146881396 -4.486827516e-18 0.01270591727)
(0.01841644982 -4.075842082e-18 0.009156999198)
(0.01106825581 -1.951170968e-18 0.01992613298)
(0.001046268257 5.215617101e-19 0.02220674954)
(0.001797981397 1.398829008e-18 0.02217033094)
(0.002820949216 -2.062357496e-17 0.02217260086)
(0.003873848157 -6.711945296e-18 0.02218982463)
(0.004922450105 9.071747769e-20 0.02221640261)
(0.005953461198 1.042991841e-18 0.02225092908)
(0.006958690039 5.726086815e-19 0.02229266286)
(0.007931840508 2.766652135e-18 0.02234110235)
(0.008867623185 -1.084124145e-17 0.02239572396)
(0.009761431181 -1.315974146e-17 0.02245602214)
(0.01060920129 2.261567247e-18 0.02252147655)
(0.01140737903 1.971884891e-17 0.02259154009)
(0.01215291169 1.939626624e-17 0.02266563695)
(0.01284325457 1.059798598e-17 0.02274316377)
(0.01347638255 3.159948355e-18 0.02282349204)
(0.01405080286 2.604216338e-19 0.02290597126)
(0.01456556706 4.508671257e-20 0.02298993268)
(0.01502028095 4.175319196e-19 0.02307469323)
(0.01541511174 6.24561857e-19 0.02315955975)
(0.01575079218 6.143883089e-19 0.02324383312)
(0.01602862157 6.290928459e-19 0.02332681232)
(0.01625046415 6.271848235e-19 0.02340779849)
(0.0164187478 6.434110534e-19 0.0234860997)
(0.01653647828 6.225572691e-19 0.02356103645)
(0.01660727313 5.971950494e-19 0.02363190165)
(0.01663521163 6.284733869e-19 0.02369769679)
(0.01662499861 6.545936518e-19 0.02375787377)
(0.01658199874 6.364035243e-19 0.02381198798)
(0.01651207655 6.26753931e-19 0.02385896877)
(0.01642185092 6.155153508e-19 0.02389779913)
(0.01631890985 6.250096668e-19 0.02392721225)
(0.01621198088 6.400402096e-19 0.02394601768)
(0.01611176148 4.285191393e-19 0.02394970092)
(0.01602926577 1.411480823e-18 0.02394242614)
(0.01598578141 -3.103903928e-18 0.0238854939)
(0.0159802827 -3.916671948e-18 0.02389552086)
(0.01618499766 -4.679987066e-18 0.02344324966)
(0.01613178606 -4.917962719e-18 0.02455521916)
(0.01693589662 -4.420471725e-18 0.01631579941)
(0.008864674772 -2.466792417e-18 0.04569064167)
(0.001056858893 4.664850039e-19 0.01991558461)
(0.001813029742 1.405485262e-18 0.01987655847)
(0.002841039091 -2.059561301e-17 0.01988369698)
(0.003898728828 -6.73950044e-18 0.01991314165)
(0.004952333597 9.344652494e-20 0.01995787446)
(0.005988472248 1.042122235e-18 0.02001580032)
(0.006998847053 5.718001102e-19 0.02008576684)
(0.007977113303 2.771764338e-18 0.02016692577)
(0.008917925228 -1.077672996e-17 0.02025842855)
(0.009816605065 -1.316108667e-17 0.02035943999)
(0.01066904122 2.192105936e-18 0.02046909335)
(0.01147164152 1.966826919e-17 0.02058647612)
(0.01222132258 1.946565411e-17 0.02071062751)
(0.01291551414 1.060362428e-17 0.02084054047)
(0.0135521696 3.195023886e-18 0.02097516567)
(0.01412977819 2.533906264e-19 0.02111341683)
(0.01464737643 5.28459561e-20 0.02125417687)
(0.01510455771 4.065952337e-19 0.02139630455)
(0.01550147906 5.950198076e-19 0.02153864144)
(0.01583886515 6.288106106e-19 0.02168001877)
(0.01611800948 6.793249943e-19 0.02181926398)
(0.01634077415 6.672900856e-19 0.02195520619)
(0.01650959176 6.454770328e-19 0.02208667888)
(0.01662747365 5.767747511e-19 0.02221251272)
(0.01669800831 6.010354154e-19 0.02233149647)
(0.01672525104 6.222553415e-19 0.02244229407)
(0.01671375439 6.227717021e-19 0.02254378977)
(0.01666876166 6.347323812e-19 0.02263502234)
(0.01659609362 6.316032552e-19 0.02271448012)
(0.01650214324 6.192922328e-19 0.02278050374)
(0.0163941057 6.065795818e-19 0.02283107973)
(0.01628016547 5.758895808e-19 0.02286410124)
(0.01616954904 4.894830728e-19 0.02287367808)
(0.01607201853 1.384740501e-18 0.02286451894)
(0.01600247107 -3.133721e-18 0.02278677618)
(0.01596072778 -3.795602936e-18 0.02279229354)
(0.01602390452 -4.59467341e-18 0.02214971194)
(0.01589598023 -5.110160325e-18 0.02371437761)
(0.01551040102 -4.182160861e-18 0.01395141521)
(0.007567692352 -2.473254523e-18 0.05739171763)
(0.001067936371 4.665420544e-19 0.01846419695)
(0.001831317001 1.39284436e-18 0.01842556615)
(0.002868351672 -2.056522873e-17 0.01843921349)
(0.003934725574 -6.76766956e-18 0.01848142471)
(0.004996825161 7.071018807e-20 0.01854460471)
(0.006041260048 1.040087344e-18 0.01862618805)
(0.007059657159 5.732171219e-19 0.01872465465)
(0.008045577947 2.780134228e-18 0.01883882049)
(0.00899359149 -1.071369653e-17 0.01896753608)
(0.009898950569 -1.317094826e-17 0.01910963348)
(0.01075747716 2.10099408e-18 0.01926389633)
(0.01156551981 1.963321306e-17 0.01942904356)
(0.01231994258 1.947888708e-17 0.01960372625)
(0.01301812913 1.069483894e-17 0.01978653042)
(0.01365799306 3.221649861e-18 0.01997598271)
(0.01423798989 2.654619193e-19 0.02017055781)
(0.01475712853 4.670677387e-20 0.0203686871)
(0.01521498079 3.952286778e-19 0.02056876796)
(0.01561168827 6.261226397e-19 0.02076917348)
(0.01594796637 6.605865011e-19 0.02096826205)
(0.01622510556 7.061874162e-19 0.021164386)
(0.01644497094 6.591839576e-19 0.02135589813)
(0.01661000034 6.590888554e-19 0.02154115343)
(0.01672319784 6.289000787e-19 0.02171850138)
(0.01678810704 6.148207001e-19 0.02188626686)
(0.01680874715 6.289955298e-19 0.02204274768)
(0.01678963113 6.291557669e-19 0.02218635656)
(0.01673589125 6.681001167e-19 0.0223155559)
(0.01665321317 6.320958515e-19 0.0224284324)
(0.01654776433 6.238282808e-19 0.02252281775)
(0.01642631687 6.14944836e-19 0.02259608235)
(0.01629631166 5.95652613e-19 0.02264541211)
(0.01616569461 3.821856257e-19 0.02266435315)
(0.01604256227 1.419167308e-18 0.02265754954)
(0.0159347121 -3.247508309e-18 0.02257168094)
(0.01584233174 -3.905865174e-18 0.02257701834)
(0.01576709284 -4.639880566e-18 0.02187163251)
(0.01545563479 -5.123712193e-18 0.02366294757)
(0.0145293255 -4.08573415e-18 0.01347287883)
(0.006858192759 -2.367997665e-18 0.06870452286)
(0.001081180874 4.670839869e-19 0.01694469078)
(0.001854039508 1.430134064e-18 0.01690733026)
(0.002903465088 -2.053550779e-17 0.01692845806)
(0.003982086709 -6.807590976e-18 0.01698401651)
(0.00505612756 5.925885774e-20 0.01706607258)
(0.006112131877 1.047983625e-18 0.01717173302)
(0.007141637365 5.712884935e-19 0.01729915456)
(0.008138105911 2.788292488e-18 0.01744684649)
(0.009096009454 -1.063225138e-17 0.01761335123)
(0.0100105131 -1.32086557e-17 0.0177971711)
(0.0108773573 1.912647248e-18 0.01799673804)
(0.01169281606 1.951717378e-17 0.01821039871)
(0.01245368654 1.950086884e-17 0.01843641168)
(0.01315729323 1.074471495e-17 0.0186729513)
(0.01380149825 3.268191143e-18 0.01891811515)
(0.01438471347 2.785063362e-19 0.01916993364)
(0.01490591207 5.050880576e-20 0.01942638118)
(0.01536463824 4.2569277e-19 0.01968538818)
(0.01576101402 6.209898488e-19 0.01994485358)
(0.01609574309 6.620766774e-19 0.02020265724)
(0.01637011106 6.632543468e-19 0.02045667108)
(0.01658598212 6.368795963e-19 0.02070476789)
(0.01674579057 6.320036823e-19 0.0209448258)
(0.01685252358 6.363402771e-19 0.02117472768)
(0.01690968986 6.212110804e-19 0.02139235966)
(0.01692128191 6.46732899e-19 0.02159562456)
(0.01689178675 6.443793588e-19 0.02178248739)
(0.01682623448 6.717425878e-19 0.02195090176)
(0.01673014972 6.390546948e-19 0.02209856064)
(0.01660946688 6.143625897e-19 0.02222289425)
(0.01647051571 5.879713395e-19 0.02232082687)
(0.01631996624 6.289432778e-19 0.0223891311)
(0.01616460218 4.225522321e-19 0.02242116449)
(0.01601125431 1.469828565e-18 0.02242151097)
(0.0158625909 -3.247327304e-18 0.02233968164)
(0.01572384107 -4.030907575e-18 0.0223467131)
(0.01556061205 -4.6928877e-18 0.02166567866)
(0.01514132136 -5.08473226e-18 0.02352227318)
(0.0138791721 -4.048643994e-18 0.0135071729)
(0.006396105553 -2.242588966e-18 0.07936125077)
(0.001097146479 4.539133009e-19 0.01540727475)
(0.001881753816 1.442585751e-18 0.01537136546)
(0.002946826373 -2.049535203e-17 0.01540054668)
(0.004041144424 -6.845304029e-18 0.01546998792)
(0.005130530326 4.057269263e-20 0.01557142478)
(0.006201377155 1.043112046e-18 0.01570170318)
(0.007245098226 5.768767189e-19 0.01585868462)
(0.008255035624 2.789746782e-18 0.01604058805)
(0.009225546376 -1.054888098e-17 0.01624564689)
(0.01015168923 -1.32105017e-17 0.01647203213)
(0.01102910641 1.781901182e-18 0.01671782072)
(0.01185398199 1.935293041e-17 0.01698098215)
(0.01262303206 1.949197039e-17 0.01725937677)
(0.01333350923 1.085478235e-17 0.01755076107)
(0.01398321304 3.330014386e-18 0.01785279706)
(0.01457050239 2.902554168e-19 0.01816306406)
(0.01509430729 5.203541839e-20 0.01847907238)
(0.01555413865 4.03310991e-19 0.01879827817)
(0.01595009509 6.436098875e-19 0.019118099)
(0.01628286592 6.740368673e-19 0.0194359294)
(0.01655372963 6.920590425e-19 0.0197491555)
(0.01676454701 6.483046698e-19 0.02005516771)
(0.01691774735 6.570088795e-19 0.0203513705)
(0.01701630632 6.472739712e-19 0.02063518958)
(0.01706371624 6.354513133e-19 0.0209040794)
(0.01706395759 6.545628352e-19 0.02115553373)
(0.01702149311 6.506434682e-19 0.0213870882)
(0.01694126845 6.835908764e-19 0.02159625489)
(0.0168286524 6.273886079e-19 0.02178036631)
(0.01668935011 6.018832248e-19 0.02193652857)
(0.01652930787 6.014178341e-19 0.02206139221)
(0.0163545932 6.350989116e-19 0.02215153461)
(0.01617100376 4.129897633e-19 0.0222004656)
(0.01598461408 1.421846148e-18 0.02221232471)
(0.01579590944 -3.147814069e-18 0.02214343048)
(0.01561702767 -4.10467467e-18 0.02214889882)
(0.01539954658 -4.793808436e-18 0.02153427664)
(0.01516871724 -5.132739861e-18 0.02331567938)
(0.01378071407 -3.953185646e-18 0.01396137036)
(0.006182037254 -2.137088963e-18 0.08957595637)
(0.00111616136 4.670603157e-19 0.01384465925)
(0.001914857823 1.467327887e-18 0.01381007631)
(0.002998851217 -2.044527455e-17 0.01384767293)
(0.004112300319 -6.895427499e-18 0.01393149773)
(0.005220443537 2.930645142e-20 0.014052884)
(0.006309437294 1.060745705e-18 0.0142084344)
(0.007370525851 5.712276661e-19 0.01439572591)
(0.008396903169 2.787696678e-18 0.01461269342)
(0.009382789145 -1.044392927e-17 0.01485725983)
(0.01032311599 -1.32450341e-17 0.01512726069)
(0.01121340958 1.677579368e-18 0.01542041273)
(0.0120497478 1.924871236e-17 0.01573430187)
(0.01282875102 1.960123594e-17 0.01606638306)
(0.01354758686 1.097967389e-17 0.01641398736)
(0.01420398088 3.40792523e-18 0.01677433312)
(0.01479622933 3.102754994e-19 0.01714454017)
(0.01532321117 5.077808455e-20 0.01752164603)
(0.01578439805 3.970144897e-19 0.01790262376)
(0.01617986088 6.493281463e-19 0.01828440089)
(0.01651027193 6.837041592e-19 0.01866387876)
(0.01677690155 6.842003574e-19 0.01903795152)
(0.01698160844 6.38202537e-19 0.01940352386)
(0.01712682253 6.306518314e-19 0.01975752685)
(0.01721552069 6.528041084e-19 0.02009693128)
(0.01725119746 6.471139354e-19 0.02041875928)
(0.01723783588 6.582244488e-19 0.02072009185)
(0.01717988379 6.622849373e-19 0.0209980563)
(0.01708222442 6.824603712e-19 0.02124977375)
(0.01695010654 6.560418233e-19 0.0214722573)
(0.01678904492 6.377822388e-19 0.0216623544)
(0.01660469293 6.090401772e-19 0.02181655928)
(0.0164026994 6.09303772e-19 0.02193138456)
(0.01618821351 3.931946222e-19 0.02200079985)
(0.01596691421 1.472401944e-18 0.02202789706)
(0.01573865024 -3.030130355e-18 0.02197752967)
(0.01551929794 -4.198786834e-18 0.02197824586)
(0.01525547925 -4.909566543e-18 0.021447737)
(0.01498088871 -5.245420392e-18 0.02295119575)
(0.01324025178 -3.885122528e-18 0.01475123487)
(0.005753704987 -1.980441778e-18 0.09941957816)
(0.001138434873 4.529436876e-19 0.01225256721)
(0.001953650255 1.456032663e-18 0.01221903924)
(0.003059914263 -2.039065994e-17 0.01226530907)
(0.004195976212 -6.96425354e-18 0.01236400909)
(0.005326337398 1.583572337e-20 0.01250597733)
(0.006436839663 1.061227623e-18 0.01268756456)
(0.007518510829 5.738309949e-19 0.01290606029)
(0.00856436433 2.792164341e-18 0.01315911337)
(0.009568457883 -1.031840764e-17 0.01344433158)
(0.01052557558 -1.32561954e-17 0.01375920863)
(0.01143110783 1.433358012e-18 0.01410109372)
(0.01228100938 1.906998634e-17 0.01446718106)
(0.01307178971 1.967805437e-17 0.01485451158)
(0.01380051793 1.115094334e-17 0.01525998173)
(0.01446483387 3.504638102e-18 0.01568035672)
(0.01506296101 3.373492357e-19 0.01611228691)
(0.01559371906 5.12815564e-20 0.01655232674)
(0.01605653412 4.178914049e-19 0.01699695574)
(0.0164514452 6.355426369e-19 0.01744260113)
(0.01677910572 6.767458338e-19 0.01788566152)
(0.01704077896 6.835808111e-19 0.01832253094)
(0.0172383264 6.616631272e-19 0.01874962221)
(0.01737418868 6.638213376e-19 0.01916338879)
(0.01745135933 6.654157918e-19 0.01956034355)
(0.01747335374 6.443461754e-19 0.01993707326)
(0.01744417516 6.585665662e-19 0.02029024677)
(0.01736827601 6.646405119e-19 0.02061660212)
(0.01725050821 6.904007025e-19 0.02091290601)
(0.01709604623 6.587934308e-19 0.02117588677)
(0.01691027745 5.952789742e-19 0.02140218733)
(0.01669866205 6.061058612e-19 0.02158821205)
(0.01646659453 5.913766088e-19 0.02173048021)
(0.01621887706 4.222783034e-19 0.02182358164)
(0.0159609182 1.472179549e-18 0.02186919222)
(0.01569294135 -2.877895049e-18 0.02184079202)
(0.01543342683 -4.220113752e-18 0.02183588187)
(0.01511604214 -5.040471976e-18 0.02140460108)
(0.01467088632 -5.273312787e-18 0.0224779916)
(0.01261284425 -3.756686339e-18 0.01588918854)
(0.005355607586 -1.893633001e-18 0.1089237315)
(0.001164133006 4.397805756e-19 0.01062625019)
(0.00199839488 1.46699926e-18 0.01059342097)
(0.003130385963 -2.033709079e-17 0.01064857522)
(0.004292629139 -7.020548829e-18 0.01076265693)
(0.005448749323 -8.141300567e-22 0.0109259099)
(0.006584202752 1.064582251e-18 0.01113441141)
(0.007689753473 5.652284513e-19 0.01138515134)
(0.008758200058 2.798844352e-18 0.01167548343)
(0.009783411396 -1.015852303e-17 0.01200269208)
(0.01076000081 -1.323054152e-17 0.01236392031)
(0.01168320346 1.142696762e-18 0.01275614034)
(0.01254883336 1.883269023e-17 0.01317614479)
(0.01335327352 1.973596761e-17 0.01362055032)
(0.01409348072 1.129473058e-17 0.01408580817)
(0.01476699677 3.615058506e-18 0.01456821936)
(0.015371962 3.699885255e-19 0.01506395335)
(0.01590712829 4.974045904e-20 0.01556906957)
(0.01637186983 4.289439489e-19 0.01607954176)
(0.01676618991 6.564562112e-19 0.01659128457)
(0.01709072232 6.872836042e-19 0.01710018204)
(0.0173467262 7.041775315e-19 0.01760211706)
(0.01753607332 6.735768982e-19 0.0180930008)
(0.01766122741 6.758362294e-19 0.01856880065)
(0.01772521582 6.807947649e-19 0.01902556465)
(0.01773159485 6.57404514e-19 0.01945943964)
(0.01768440976 6.684470176e-19 0.01986668286)
(0.01758814495 6.710275332e-19 0.0202436567)
(0.01744765963 7.019236536e-19 0.0205867992)
(0.01726810377 6.569833199e-19 0.02089257967)
(0.01705481073 6.205973379e-19 0.0211574702)
(0.01681314878 5.781770416e-19 0.02137782547)
(0.01654839086 6.692025274e-19 0.02155019829)
(0.01626520578 4.693450684e-19 0.02166984995)
(0.01596881558 1.498914773e-18 0.02173698005)
(0.01565965813 -2.865305788e-18 0.02173304944)
(0.01535835523 -4.25777807e-18 0.02172231713)
(0.01498846188 -5.130968473e-18 0.02140817788)
(0.01438460339 -5.182761403e-18 0.02203515003)
(0.01210463392 -3.646496655e-18 0.01727875995)
(0.00505762853 -1.796674983e-18 0.1181086792)
(0.001193408945 4.308603727e-19 0.008960742161)
(0.002049350278 1.471730095e-18 0.008928194427)
(0.003210652884 -2.0268908e-17 0.008992428871)
(0.004402760948 -7.079282059e-18 0.009122432317)
(0.005588288265 -2.70875191e-20 0.009307751556)
(0.006752238912 1.063107239e-18 0.009544161882)
(0.00788506646 5.602946379e-19 0.009828336283)
(0.008979319362 2.803615737e-18 0.01015731742)
(0.0100286503 -9.987734195e-18 0.0105280546)
(0.01102747852 -1.322346536e-17 0.01093732883)
(0.01197086354 8.925717704e-19 0.01138172368)
(0.01285446082 1.856703097e-17 0.01185761851)
(0.01367451092 1.97688324e-17 0.01236119386)
(0.01442784405 1.148646713e-17 0.0128884437)
(0.01511189146 3.744167132e-18 0.01343519243)
(0.01572469946 4.030683438e-19 0.01399711554)
(0.01626494329 3.435801222e-20 0.01456976382)
(0.01673193877 4.268698506e-19 0.01514859102)
(0.01712564996 6.575347292e-19 0.01572898459)
(0.01744669109 7.009102025e-19 0.01630629926)
(0.01769632146 7.169059219e-19 0.01687589242)
(0.01787643215 6.920342394e-19 0.01743315992)
(0.01798952399 6.908776352e-19 0.01797357065)
(0.01803867678 6.66144415e-19 0.01849269735)
(0.01802751014 6.510885133e-19 0.01898624004)
(0.01796013715 6.781252809e-19 0.01945004262)
(0.01784110669 6.87848045e-19 0.01988009849)
(0.01767532882 7.030435455e-19 0.02027253342)
(0.01746798437 6.550881622e-19 0.02062357522)
(0.01722442064 6.293338861e-19 0.02092953976)
(0.01695000704 5.987776907e-19 0.02118675387)
(0.01665002281 6.748636346e-19 0.02139180032)
(0.01632918481 4.998370557e-19 0.02154059511)
(0.01599264061 1.480975917e-18 0.02163199543)
(0.01564044999 -2.853198796e-18 0.02165526135)
(0.01528912751 -4.277749358e-18 0.02164286138)
(0.01487066027 -5.196927419e-18 0.02144970614)
(0.0141532952 -5.142062443e-18 0.02164911051)
(0.01167023419 -3.529517687e-18 0.01882398771)
(0.004788938997 -1.730445203e-18 0.1270077419)
(0.001226418165 4.256341655e-19 0.007250853584)
(0.002106786697 1.492699367e-18 0.007218116872)
(0.003301131905 -2.018247291e-17 0.007291629053)
(0.00452692749 -7.163057252e-18 0.007438141975)
(0.005745640577 -8.068769311e-20 0.007646397118)
(0.006941758819 1.061119941e-18 0.007911834229)
(0.008105378905 5.575560591e-19 0.008230790067)
(0.009228763378 2.806719487e-18 0.008599973135)
(0.01030532117 -9.79257918e-18 0.009015982898)
(0.0113292537 -1.319856776e-17 0.009475224471)
(0.01229542428 6.675861211e-19 0.009973878937)
(0.01319931165 1.827758133e-17 0.01050789883)
(0.01403699781 1.982441689e-17 0.0110730152)
(0.0148051719 1.169445531e-17 0.01166475131)
(0.01550114164 3.874312117e-18 0.01227844104)
(0.01612284809 4.261047446e-19 0.01290925139)
(0.01666888063 2.349804914e-20 0.0135522091)
(0.01713849008 4.10387933e-19 0.01420223145)
(0.0175315978 7.104129298e-19 0.01485416145)
(0.01784879897 7.173825447e-19 0.01550280662)
(0.01809135809 6.976856367e-19 0.01614298077)
(0.01826119559 6.959778023e-19 0.01676954682)
(0.01836086461 7.078854929e-19 0.01737745869)
(0.01839351755 6.054193468e-19 0.01796179955)
(0.01836286234 6.51984827e-19 0.01851781244)
(0.01827310928 6.89790177e-19 0.01904092288)
(0.01812890731 6.96765709e-19 0.01952675536)
(0.01793526344 7.025261417e-19 0.01997113027)
(0.0176974467 6.711238097e-19 0.02037004341)
(0.01742088559 6.507097959e-19 0.02071965911)
(0.01711102784 6.467088319e-19 0.02101628139)
(0.01677325474 6.708235351e-19 0.02125649865)
(0.01641247559 5.453821778e-19 0.02143681221)
(0.01603389488 1.494814692e-18 0.02155497291)
(0.01563849066 -2.749420643e-18 0.02160744055)
(0.01524545305 -4.29844493e-18 0.02159683598)
(0.01478215572 -5.168242105e-18 0.02152406647)
(0.01394847428 -5.165458776e-18 0.02130006741)
(0.01127696977 -3.424883501e-18 0.02051458572)
(0.004547220386 -1.66297006e-18 0.1356517582)
(0.001263326459 4.528888031e-19 0.005491162795)
(0.002170996225 1.520964948e-18 0.00545771393)
(0.003402280489 -2.010116918e-17 0.005540713071)
(0.004665747046 -7.248743053e-18 0.005704382112)
(0.005921576675 -1.072826557e-19 0.005936540649)
(0.007153677062 1.046768702e-18 0.006232253472)
(0.008351741559 5.320035427e-19 0.006587502707)
(0.00950771056 2.812557189e-18 0.006998631251)
(0.0106147218 -9.564779319e-18 0.007461871595)
(0.01166673488 -1.318926889e-17 0.007973236492)
(0.01265839624 2.562561998e-19 0.008528488376)
(0.01358498986 1.797643268e-17 0.009123137599)
(0.01444242295 1.98399458e-17 0.009752450892)
(0.01522722885 1.189949701e-17 0.01041146602)
(0.01593657849 4.011592208e-18 0.0110950112)
(0.01656829591 4.317671605e-19 0.01179772893)
(0.01712087488 -2.554823571e-20 0.01251410459)
(0.01759349408 3.727202086e-19 0.01323850036)
(0.01798602848 6.239749212e-19 0.01396519459)
(0.01829905461 6.924602734e-19 0.01468842632)
(0.01853384751 7.059754198e-19 0.0154024438)
(0.01869236768 6.793228034e-19 0.01610155515)
(0.01877723676 6.851252932e-19 0.01678017865)
(0.01879170148 6.860412641e-19 0.01743288949)
(0.01873958531 6.813262909e-19 0.01805445928)
(0.01862522844 6.911665724e-19 0.01863988646)
(0.0184534179 6.803999349e-19 0.01918442098)
(0.01822930427 6.961662524e-19 0.01968357594)
(0.0179583017 6.568159661e-19 0.02013311696)
(0.01764598346 6.196259773e-19 0.02052905597)
(0.01729794713 5.911828166e-19 0.02086766958)
(0.01691975027 6.684375582e-19 0.02114551986)
(0.01651654494 4.88320873e-19 0.02135961352)
(0.01609391218 1.540024579e-18 0.02150667121)
(0.01565404655 -2.815714337e-18 0.02158911687)
(0.0152169776 -4.290523963e-18 0.02157986277)
(0.01471132582 -5.2671841e-18 0.02163045339)
(0.01378813492 -5.1629064e-18 0.02097944189)
(0.01093486125 -3.364009662e-18 0.02235108947)
(0.004323375924 -1.548262999e-18 0.1440614708)
(0.001304314845 4.404440325e-19 0.003675997344)
(0.002242299632 1.532644716e-18 0.00364125734)
(0.003514604684 -1.999779583e-17 0.003733970405)
(0.00481990837 -7.34444423e-18 0.003915510647)
(0.006116958473 -1.568755576e-19 0.004172648639)
(0.007389018741 1.043534052e-18 0.004500025917)
(0.008625333065 5.40406843e-19 0.004893255262)
(0.009817483092 2.829062676e-18 0.005348272747)
(0.01095830768 -9.337710031e-18 0.005860925267)
(0.01204150044 -1.317718147e-17 0.006426813655)
(0.01306147066 -8.629949487e-20 0.007041263169)
(0.01401328977 1.763246422e-17 0.007699324875)
(0.01489267412 1.987186403e-17 0.008395784977)
(0.01569598645 1.212964519e-17 0.009125179846)
(0.01642024714 4.169539942e-18 0.009881815747)
(0.01706315086 4.625602149e-19 0.01065979328)
(0.01762308522 -6.948822447e-20 0.01145303746)
(0.01809914883 3.453367651e-19 0.01225533429)
(0.0184911658 6.047956539e-19 0.01306037439)
(0.01879969399 6.649181149e-19 0.0138618033)
(0.01902602418 6.795144225e-19 0.0146532776)
(0.01917216795 6.743841042e-19 0.01542852426)
(0.01924083258 6.748509268e-19 0.01618140057)
(0.01923538235 7.050924482e-19 0.01690595076)
(0.01915978549 7.048585312e-19 0.01759645593)
(0.01901854743 7.10723329e-19 0.01824747391)
(0.0188166341 7.025498054e-19 0.01885387046)
(0.01855938605 6.999964087e-19 0.01941084234)
(0.01825241631 6.639969542e-19 0.01991392003)
(0.01790150177 6.258784107e-19 0.02035895906)
(0.01751245392 6.151577085e-19 0.02074219671)
(0.0170910757 6.761966907e-19 0.02106013617)
(0.01664280813 5.303742471e-19 0.02131023938)
(0.01617356262 1.540870999e-18 0.02148812489)
(0.01568602431 -2.801215457e-18 0.0216015654)
(0.01519949901 -4.29408976e-18 0.02159534929)
(0.01465129263 -5.308160832e-18 0.0217636027)
(0.01363830623 -5.188638675e-18 0.02067351142)
(0.0106136305 -3.299085562e-18 0.0243339817)
(0.004116430224 -1.491663527e-18 0.1522559386)
(0.001349583152 4.390356675e-19 0.001799409325)
(0.002321051779 1.569054185e-18 0.001762738403)
(0.003638665854 -1.987701721e-17 0.001865414338)
(0.004990178279 -7.460365217e-18 0.002065617759)
(0.006332747586 -2.130508764e-19 0.002348932288)
(0.007648927114 1.056372756e-18 0.002709513609)
(0.008927467661 5.545071919e-19 0.003142594772)
(0.01015955495 2.846801763e-18 0.003643655809)
(0.01133769975 -9.089312867e-18 0.004208137226)
(0.01245530607 -1.316000723e-17 0.004831204512)
(0.01350652667 -3.933737504e-19 0.005507724957)
(0.01448620318 1.718871715e-17 0.006232271578)
(0.01538984532 1.985949785e-17 0.006999132672)
(0.01621363033 1.241027663e-17 0.007802326405)
(0.01695441396 4.360168263e-18 0.008635619919)
(0.01760974828 5.004991576e-19 0.00949255341)
(0.01817790312 -9.900359696e-20 0.01036647087)
(0.01865788782 3.066422786e-19 0.0112505588)
(0.01904946998 5.332976093e-19 0.01213789386)
(0.01935318783 5.492089492e-19 0.01302149931)
(0.01957035259 6.394037404e-19 0.01389440941)
(0.01970303801 6.484757857e-19 0.01474973876)
(0.01975405495 6.3556313e-19 0.01558075313)
(0.01972690982 7.512346181e-19 0.01638093785)
(0.01962574663 7.27621453e-19 0.01714405943)
(0.01945527392 7.079101775e-19 0.01786421615)
(0.01922068029 7.050496783e-19 0.01853587592)
(0.0189275431 6.633199762e-19 0.01915390642)
(0.01858172476 6.879500031e-19 0.01971359263)
(0.01818926181 6.645023882e-19 0.02021062605)
(0.01775623746 6.464447053e-19 0.02064118991)
(0.01728875368 6.771764857e-19 0.02100169698)
(0.01679258359 6.004710905e-19 0.02129003449)
(0.01627399612 1.528681586e-18 0.02150069831)
(0.01573604462 -2.707612338e-18 0.02164670846)
(0.01519746937 -4.327349409e-18 0.02164624508)
(0.01459887312 -5.351820159e-18 0.02192562154)
(0.01347323505 -5.253498218e-18 0.02039386424)
(0.01029522877 -3.146278676e-18 0.0264312228)
(0.0039272442 -1.420540225e-18 0.1602552784)
(0.00139935324 4.400661689e-19 -0.0001448542017)
(0.002407646742 1.614778634e-18 -0.0001841625057)
(0.00377508748 -1.974644564e-17 -7.124879402e-05)
(0.005177409773 -7.562291406e-18 0.0001484939686)
(0.00657001525 -2.6619901e-19 0.0004593178381)
(0.007934672568 1.066867563e-18 0.0008548095365)
(0.009259603986 5.647983608e-19 0.001329806942)
(0.01053556154 2.8724736e-18 0.001879292341)
(0.01175469341 -8.809772486e-18 0.002498267924)
(0.01291009343 -1.310992739e-17 0.003181437347)
(0.0139956396 -9.068120836e-19 0.003923187089)
(0.01500592738 1.672967369e-17 0.004717591835)
(0.0159362446 1.98637549e-17 0.005558423631)
(0.01678256826 1.266143348e-17 0.00643916506)
(0.01754157479 4.580019719e-18 0.007353026465)
(0.01821065945 5.607825913e-19 0.00829296834)
(0.01878796116 -1.074344641e-19 0.009251731623)
(0.01927238908 2.706377634e-19 0.01022187779)
(0.01966364689 5.895235807e-19 0.01119584022)
(0.01996225076 6.592634316e-19 0.01216598695)
(0.02016953617 6.46207116e-19 0.01312469447)
(0.02028765006 6.47836069e-19 0.01406442822)
(0.02031952546 6.620459316e-19 0.01497782638)
(0.02026883689 6.77522616e-19 0.01585778194)
(0.02013993725 6.774102035e-19 0.01669751737)
(0.01993777831 7.071483518e-19 0.01749064666)
(0.01966781792 7.073282692e-19 0.01823122179)
(0.01933591953 7.331831419e-19 0.01891376723)
(0.01894824537 6.851437438e-19 0.01953330856)
(0.0185111458 6.722363327e-19 0.02008536126)
(0.01803103097 6.418114788e-19 0.02056604048)
(0.01751434254 7.396567966e-19 0.02097164771)
(0.01696719904 5.554722217e-19 0.02130047969)
(0.01639632932 1.60416425e-18 0.02154582521)
(0.01580516847 -2.745470865e-18 0.02172606508)
(0.01521116816 -4.324317875e-18 0.02173439518)
(0.01455758798 -5.430360261e-18 0.02212241267)
(0.01331292059 -5.210726983e-18 0.02015657189)
(0.009988052606 -3.156870384e-18 0.02861409701)
(0.003748496446 -1.354472265e-18 0.1680740902)
(0.001453872317 4.419063516e-19 -0.002163385526)
(0.002502523376 1.656148834e-18 -0.002206110578)
(0.003924562693 -1.962222755e-17 -0.002082653114)
(0.005382543012 -7.696229442e-18 -0.001842398581)
(0.00682994276 -3.208879112e-19 -0.001502587503)
(0.008247668529 1.084738179e-18 -0.001070295021)
(0.009623363218 5.816325376e-19 -0.0005511085339)
(0.0109473109 2.885562962e-18 4.942418106e-05)
(0.01221126905 -8.53016791e-18 0.0007258229211)
(0.01340800014 -1.308698686e-17 0.001472299818)
(0.01453109045 -1.278102375e-18 0.002282735617)
(0.01557487423 1.622491371e-17 0.003150685017)
(0.01653440304 1.982531096e-17 0.004069384845)
(0.01740543899 1.296939473e-17 0.0050317646)
(0.01818446404 4.80111582e-18 0.006030460158)
(0.01886870109 6.125231471e-19 0.007057832705)
(0.01945614309 -1.240910501e-19 0.008105997083)
(0.01994558577 2.330844049e-19 0.009166862247)
(0.02033665909 5.574417602e-19 0.01023218584)
(0.0206298526 5.774252685e-19 0.01129364338)
(0.02082652849 6.09423578e-19 0.01234291261)
(0.02092891748 6.278911056e-19 0.01337176699)
(0.0209400941 6.393356758e-19 0.01437217466)
(0.02086392888 6.561601031e-19 0.01533639674)
(0.02070501933 6.775691239e-19 0.01625707631)
(0.02046860305 6.951991945e-19 0.01712731293)
(0.02016045585 7.111245477e-19 0.01794071944)
(0.01978678048 7.019485617e-19 0.01869146127)