/*--------------------------------*- C++ -*----------------------------------*\
| =========                 |                                                 |
| \\      /  F ield         | OpenFOAM: The Open Source CFD Toolbox           |
|  \\    /   O peration     | Version:  v1912                                 |
|   \\  /    A nd           | Website:  www.openfoam.com                      |
|    \\/     M anipulation  |                                                 |
\*---------------------------------------------------------------------------*/
FoamFile
{
    version     2.0;
    format      ascii;
    class       volVectorField;
    location    "1";
    object      U.liquid_0;
}
// * * * * * * * * * * * * * * * * * * * * * * * * * * * * * * * * * * * * * //

dimensions      [0 1 -1 0 0 0 0];


internalField   nonuniform List<vector> 
4800
(
(0.0009655767949 5.046181538e-19 -0.0006820428945)
(0.001679896335 1.269106331e-18 -0.0006988491309)
(0.002651271297 -1.944371394e-17 -0.0006986914937)
(0.003649002777 -5.920413054e-18 -0.0006931485823)
(0.004641129487 2.049534673e-19 -0.0006844831171)
(0.005615463579 9.584294737e-19 -0.0006731880978)
(0.006564379667 5.211330698e-19 -0.000659523178)
(0.007481933621 2.563405582e-18 -0.0006436517496)
(0.008363054067 -1.072874304e-17 -0.0006257438043)
(0.009203298312 -1.216761027e-17 -0.0006059683824)
(0.009998745935 3.21079991e-18 -0.0005844966837)
(0.01074596202 1.938014032e-17 -0.000561508352)
(0.01144199417 1.777565199e-17 -0.0005371924071)
(0.01208438141 9.00195411e-18 -0.0005117469523)
(0.01267116732 2.426444394e-18 -0.0004853784294)
(0.01320091382 1.476444559e-19 -0.0004583006001)
(0.01367271381 1.068006965e-19 -0.0004307333469)
(0.01408620153 4.560157059e-19 -0.0004029013677)
(0.01444156011 6.085137358e-19 -0.0003750328206)
(0.01473952601 5.923130324e-19 -0.0003473579712)
(0.01498139037 5.818214653e-19 -0.0003201078683)
(0.01516899698 5.827463132e-19 -0.00029351293)
(0.01530473534 5.806069877e-19 -0.0002678005691)
(0.01539152134 5.564623074e-19 -0.0002431886223)
(0.01543278204 5.822125905e-19 -0.0002198938485)
(0.01543274682 5.60753477e-19 -0.0001983309092)
(0.01539628298 5.467595391e-19 -0.0001786198334)
(0.01532846559 5.919903504e-19 -0.0001608739273)
(0.01523501743 6.017897644e-19 -0.0001455028987)
(0.01512261549 6.00957003e-19 -0.0001328410867)
(0.01499891359 5.871810206e-19 -0.0001233193587)
(0.01487255529 5.645366808e-19 -0.0001172916235)
(0.01475513177 4.072967283e-19 -0.0001165189034)
(0.01465788638 1.293428572e-18 -0.0001192104447)
(0.01461223324 -3.259255016e-18 -0.0001408900981)
(0.01460127854 -4.189512833e-18 -0.0001342530955)
(0.01483027811 -4.696354143e-18 -0.0002952703201)
(0.01468292007 -4.485910686e-18 0.0001195209757)
(0.01871939636 -4.071268914e-18 -0.003108912225)
(0.01135958052 -1.942075569e-18 0.00774604912)
(0.00103888626 5.215036166e-19 -0.002097910835)
(0.001784626125 1.393396912e-18 -0.002133940662)
(0.002799538797 -2.058239337e-17 -0.002131716859)
(0.003844321248 -6.68550734e-18 -0.00211470281)
(0.004885021358 9.86758763e-20 -0.002088439683)
(0.005908459445 1.041367505e-18 -0.002054316069)
(0.006906542277 5.719632557e-19 -0.002013062427)
(0.007873054051 2.762012722e-18 -0.001965172107)
(0.008802771389 -1.083448764e-17 -0.001911160187)
(0.009691141547 -1.314662957e-17 -0.001851523584)
(0.01053414474 2.288815235e-18 -0.001786773802)
(0.01132825926 1.972845351e-17 -0.001717448977)
(0.01207045463 1.936919323e-17 -0.001644115882)
(0.01275819801 1.054016398e-17 -0.001567368897)
(0.01338946608 3.12291719e-18 -0.00148782773)
(0.01396275826 2.514143812e-19 -0.001406134343)
(0.01447710927 4.757885404e-20 -0.001322949382)
(0.01493209975 4.200080591e-19 -0.001238948268)
(0.01532786428 6.246408109e-19 -0.001154817147)
(0.01566509647 6.133884151e-19 -0.00107124883)
(0.01594505095 6.28273813e-19 -0.0009889388582)
(0.01616954282 6.26386166e-19 -0.0009085816537)
(0.01634094678 6.427792636e-19 -0.0008308662112)
(0.01646220931 6.217492054e-19 -0.0007564710103)
(0.01653688865 5.961584709e-19 -0.0006860922882)
(0.01656902517 6.277021882e-19 -0.0006207170353)
(0.01656325776 6.540317265e-19 -0.0005609210172)
(0.01652488706 6.356515289e-19 -0.0005071397057)
(0.01645973571 6.258835647e-19 -0.0004604312692)
(0.01637436632 6.145115564e-19 -0.0004218210878)
(0.01627631226 6.240532095e-19 -0.0003925738357)
(0.01617425059 6.38651705e-19 -0.0003738804746)
(0.01607882128 4.268876117e-19 -0.0003702333169)
(0.01600099479 1.410808755e-18 -0.0003774677139)
(0.01596187509 -3.062515654e-18 -0.0004341833545)
(0.01596070149 -3.927945623e-18 -0.0004239267252)
(0.01616819651 -4.68718283e-18 -0.0008758680425)
(0.01614564185 -4.920188021e-18 0.000240218354)
(0.01749564687 -4.415834361e-18 -0.007416753935)
(0.009389490831 -2.464218556e-18 0.02204848484)
(0.001049535824 4.664751465e-19 -0.003573083448)
(0.001799549464 1.39986815e-18 -0.003611658116)
(0.002819330121 -2.055716974e-17 -0.003604608968)
(0.003868784509 -6.71293212e-18 -0.00357550594)
(0.004914378964 1.017599069e-19 -0.003531290133)
(0.00594284292 1.040485152e-18 -0.003474030079)
(0.006945977366 5.710553193e-19 -0.0034048612)
(0.007917518253 2.767196588e-18 -0.003324617617)
(0.008852186596 -1.077294164e-17 -0.003234133627)
(0.009745359765 -1.314819488e-17 -0.003134229907)
(0.01059297019 2.222120537e-18 -0.003025758281)
(0.01139145886 1.968143306e-17 -0.002909616088)
(0.01213776476 1.943904862e-17 -0.002786748808)
(0.01282932948 1.054550739e-17 -0.002658148294)
(0.01346410803 3.157504827e-18 -0.002524848948)
(0.01404058151 2.445081402e-19 -0.002387922607)
(0.01455776911 5.543813504e-20 -0.002248472591)
(0.01501523846 4.098824311e-19 -0.002107627222)
(0.01541311327 5.951984682e-19 -0.001966533075)
(0.01575207819 6.282845892e-19 -0.001826348253)
(0.01603338098 6.782375228e-19 -0.001688236065)
(0.01625883313 6.655736872e-19 -0.001553359712)
(0.01643081215 6.435550147e-19 -0.001422879572)
(0.01655227018 5.763162203e-19 -0.001297959169)
(0.0166267381 5.997191343e-19 -0.001179798745)
(0.01665822993 6.216303105e-19 -0.001069721356)
(0.0166512404 6.221094855e-19 -0.0009688740981)
(0.01661093696 6.341311739e-19 -0.0008782107711)
(0.01654309245 6.309225284e-19 -0.0007992242899)
(0.0164540554 6.184502686e-19 -0.0007335831527)
(0.01635096614 6.055773855e-19 -0.000683300907)
(0.01624195964 5.745771805e-19 -0.0006504821299)
(0.01613621971 4.879191598e-19 -0.0006409826488)
(0.01604344597 1.382979767e-18 -0.0006501306267)
(0.01597848251 -3.099945461e-18 -0.0007275928015)
(0.01594123461 -3.800437948e-18 -0.0007217289199)
(0.01600827933 -4.602496799e-18 -0.001363725043)
(0.01592658767 -5.111382642e-18 0.0002049214657)
(0.01613298937 -4.174389531e-18 -0.008999582213)
(0.008138902979 -2.461248574e-18 0.03433146481)
(0.001060713034 4.664724491e-19 -0.00506367371)
(0.001817738254 1.3871724e-18 -0.00510183464)
(0.002846351403 -2.052708803e-17 -0.005088344239)
(0.003904356793 -6.740724268e-18 -0.00504662233)
(0.004958328671 7.909320674e-20 -0.004984175472)
(0.005994981281 1.038306361e-18 -0.004903534671)
(0.007006039805 5.723935872e-19 -0.004806197049)
(0.007985147059 2.775309282e-18 -0.004693326787)
(0.008926939802 -1.070979782e-17 -0.004566053125)
(0.009826726576 -1.31577404e-17 -0.004425523381)
(0.01068037394 2.131520709e-18 -0.004272932746)
(0.0114842639 1.964673135e-17 -0.004109540767)
(0.01223528303 1.945242268e-17 -0.003936674694)
(0.01293082679 1.06358253e-17 -0.003755726971)
(0.01356881009 3.183675465e-18 -0.00356814985)
(0.01414767987 2.563517653e-19 -0.003375448213)
(0.01466642709 4.821751943e-20 -0.003179171239)
(0.01512459704 3.974972671e-19 -0.002980903313)
(0.015522297 6.259146531e-19 -0.002782254574)
(0.01586020118 6.591473434e-19 -0.002584851573)
(0.01613955298 7.046696771e-19 -0.002390328757)
(0.01636216533 6.582485224e-19 -0.002200321996)
(0.01653041991 6.575951775e-19 -0.002016466527)
(0.01664726247 6.270725351e-19 -0.001840403476)
(0.01671618089 6.138675762e-19 -0.001673797704)
(0.0167411459 6.270633099e-19 -0.001518345462)
(0.0167266129 6.287503551e-19 -0.001375651449)
(0.01667764083 6.664034126e-19 -0.001247254285)
(0.01659986209 6.315819908e-19 -0.001135048222)
(0.01649940265 6.23171327e-19 -0.001041207642)
(0.01638298299 6.141453126e-19 -0.0009683652604)
(0.01625799631 5.940972612e-19 -0.0009193315683)
(0.0161323555 3.802840133e-19 -0.0009005278155)
(0.01601409191 1.418992055e-18 -0.0009073578071)
(0.01591103235 -3.217026721e-18 -0.0009929434189)
(0.01582336484 -3.907908337e-18 -0.0009872521263)
(0.01575273951 -4.647010356e-18 -0.001692075967)
(0.01561060381 -5.125853968e-18 0.0001028890346)
(0.01542735804 -4.077164658e-18 -0.009468153353)
(0.007580713959 -2.356022521e-18 0.04543703473)
(0.00107404461 4.677744226e-19 -0.006571575976)
(0.001840311232 1.424139134e-18 -0.006608460003)
(0.002881069698 -2.049740149e-17 -0.00658756823)
(0.003951138128 -6.780384279e-18 -0.006532653929)
(0.005016886238 6.768061104e-20 -0.006451553573)
(0.006064957081 1.046150669e-18 -0.006347119482)
(0.007086986237 5.70637984e-19 -0.006221165981)
(0.008076517785 2.783680313e-18 -0.006075158077)
(0.00902809247 -1.06298352e-17 -0.005910527245)
(0.009936932044 -1.319596668e-17 -0.00572874428)
(0.0107988222 1.944666086e-18 -0.005531349709)
(0.01161007084 1.953294338e-17 -0.005319968827)
(0.01236749776 1.947458857e-17 -0.005096314874)
(0.01306843909 1.068558803e-17 -0.004862185508)
(0.01371075788 3.229024526e-18 -0.004619455721)
(0.01429285678 2.68144009e-19 -0.004370068567)
(0.01481369015 5.209262137e-20 -0.004116024401)
(0.01527277452 4.274890645e-19 -0.003859369141)
(0.01567019632 6.211280825e-19 -0.003602182036)
(0.01600661653 6.615771023e-19 -0.003346563578)
(0.01628327203 6.627415679e-19 -0.003094624432)
(0.01650197338 6.355237489e-19 -0.002848476701)
(0.01666509779 6.305451281e-19 -0.002610229183)
(0.01677557405 6.353915747e-19 -0.002381987598)
(0.01683685403 6.195076728e-19 -0.002165856711)
(0.01685287563 6.457330031e-19 -0.001963930714)
(0.01682806578 6.427397668e-19 -0.00177825307)
(0.01676738762 6.702771313e-19 -0.001610872485)
(0.01667630867 6.377144335e-19 -0.00146408467)
(0.01656071866 6.137638443e-19 -0.001340460722)
(0.01642690068 5.870517738e-19 -0.001243080405)
(0.01628148085 6.26744697e-19 -0.001175170375)
(0.01613121444 4.210793056e-19 -0.00114334903)
(0.01598287451 1.46873012e-18 -0.00114307496)
(0.01583918111 -3.218951021e-18 -0.001224671398)
(0.01570531244 -4.032892872e-18 -0.001217358425)
(0.01554724521 -4.699134531e-18 -0.001898044009)
(0.01536046745 -5.086452834e-18 -3.869750177e-05)
(0.01492755223 -4.040817771e-18 -0.009451961409)
(0.007204923325 -2.229247763e-18 0.05596227425)
(0.001090079798 4.53930572e-19 -0.008100221702)
(0.001867821534 1.436457288e-18 -0.008135647405)
(0.002923932298 -2.045753419e-17 -0.008106787983)
(0.004009464632 -6.81763596e-18 -0.00803815287)
(0.005090347606 4.925047685e-20 -0.007937902123)
(0.006153068083 1.041286369e-18 -0.007809143025)
(0.007189137258 5.760799856e-19 -0.007653979157)
(0.008191980507 2.785100387e-18 -0.007474160023)
(0.009156025052 -1.054690234e-17 -0.007271419916)
(0.0100763874 -1.319863111e-17 -0.00704755452)
(0.01094875581 1.814898858e-18 -0.006804452695)
(0.01176934872 1.937097616e-17 -0.006544110182)
(0.012534905 1.946607513e-17 -0.00626863169)
(0.01324268864 1.079337958e-17 -0.005980226035)
(0.01389049962 3.289451898e-18 -0.005681197273)
(0.01447668674 2.791829272e-19 -0.005373933269)
(0.01500016006 5.42031983e-20 -0.00506089247)
(0.01546040148 4.051571166e-19 -0.004744589411)
(0.01585747234 6.428216717e-19 -0.004427579506)
(0.01619201746 6.724908803e-19 -0.004112443789)
(0.01646526476 6.906563456e-19 -0.003801774462)
(0.01667901966 6.479423243e-19 -0.003498162336)
(0.01683565287 6.561299832e-19 -0.003204187057)
(0.01693808017 6.461988006e-19 -0.002922410161)
(0.01698973429 6.341519205e-19 -0.002655368489)
(0.01699453637 6.533548357e-19 -0.002405565456)
(0.01695688698 6.492832794e-19 -0.002175469092)
(0.01688166763 6.824448915e-19 -0.001967568821)
(0.01677418951 6.261052727e-19 -0.001784528496)
(0.01664010958 6.013099774e-19 -0.001629242487)
(0.01648532952 6.007476266e-19 -0.001505063779)
(0.01631587704 6.336013201e-19 -0.001415419014)
(0.01613752236 4.120244179e-19 -0.001366783574)
(0.01595628908 1.420507265e-18 -0.001355056618)
(0.01577271338 -3.119860121e-18 -0.001423782293)
(0.01559878571 -4.107701059e-18 -0.001418106041)
(0.01538660299 -4.799931875e-18 -0.002032533647)
(0.01525356778 -5.133684901e-18 -0.0002494016905)
(0.01460260713 -3.944083377e-18 -0.009043709242)
(0.006897861387 -2.122916131e-18 0.06606419362)
(0.00110914444 4.667741779e-19 -0.009653660486)
(0.001900662123 1.461242914e-18 -0.009687747635)
(0.002975348366 -2.040853749e-17 -0.00965056294)
(0.004079730802 -6.867645468e-18 -0.009567713793)
(0.005179114895 3.83190909e-20 -0.009447753514)
(0.006259746714 1.058767632e-18 -0.009294026806)
(0.007312968965 5.704609395e-19 -0.009108915646)
(0.008332060394 2.78358535e-18 -0.008894447536)
(0.009311312794 -1.044242694e-17 -0.008652660803)
(0.01024571747 -1.323392072e-17 -0.008385679824)
(0.01113084729 1.711123179e-18 -0.008095746713)
(0.011962815 1.92675787e-17 -0.007785233762)
(0.01273826387 1.957551969e-17 -0.007456644015)
(0.01345437259 1.091772181e-17 -0.007112604815)
(0.01410886647 3.366881543e-18 -0.006755857067)
(0.01470003062 3.002061315e-19 -0.006389241616)
(0.0152267227 5.244155277e-20 -0.006015683477)
(0.01568838365 3.990793614e-19 -0.005638174437)
(0.01608504519 6.490481379e-19 -0.005259754543)
(0.01641733298 6.827033129e-19 -0.004883493109)
(0.01668646457 6.831198899e-19 -0.004512470031)
(0.01689424104 6.364950616e-19 -0.004149758283)
(0.01704303145 6.298109375e-19 -0.003798408387)
(0.01713575009 6.520920805e-19 -0.003461435402)
(0.0171758285 6.462110555e-19 -0.003141808015)
(0.01716718641 6.578359545e-19 -0.002842441684)
(0.01711420745 6.612704778e-19 -0.002566210321)
(0.0170217113 6.815123624e-19 -0.002315994461)
(0.01689488845 6.546867755e-19 -0.002094781408)
(0.01673920354 6.361168478e-19 -0.001905727006)
(0.01656026603 6.069790302e-19 -0.001752341689)
(0.01636368636 6.087320278e-19 -0.001638121121)
(0.01615458604 3.915754853e-19 -0.001569089157)
(0.01593859772 1.471702662e-18 -0.001542192093)
(0.01571562204 -3.001407055e-18 -0.00159245562)
(0.0155012944 -4.203005587e-18 -0.001591587144)
(0.01524291474 -4.915645754e-18 -0.002121823989)
(0.01522989694 -5.245680159e-18 -0.0006162036158)
(0.01439462001 -3.875493792e-18 -0.008206568022)
(0.006637986653 -1.966885333e-18 0.07580902517)
(0.001131447864 4.530496518e-19 -0.01123631995)
(0.001939128504 1.449852098e-18 -0.01126933223)
(0.003035686655 -2.035477709e-17 -0.01122356757)
(0.00416235109 -6.935910482e-18 -0.01112602075)
(0.005283649643 2.526818374e-20 -0.01098572948)
(0.006385510408 1.059903907e-18 -0.0108062841)
(0.007459060862 5.73192237e-19 -0.01059034759)
(0.008497401171 2.787948467e-18 -0.01034022704)
(0.009494663008 -1.031802509e-17 -0.01005826903)
(0.01044569112 -1.324523642e-17 -0.009746932641)
(0.011345924 1.468203727e-18 -0.00940882018)
(0.01219135182 1.909177454e-17 -0.009046688222)
(0.01297850701 1.96529091e-17 -0.008663446477)
(0.01370446939 1.108747024e-17 -0.008262149623)
(0.01436687765 3.461470541e-18 -0.007845984659)
(0.01496394293 3.257678114e-19 -0.007418255081)
(0.015494462 5.299190566e-20 -0.006982362507)
(0.0159578283 4.201910037e-19 -0.006541786202)
(0.01635403938 6.355510733e-19 -0.006100060923)
(0.01668369956 6.761134693e-19 -0.005660753679)
(0.0169480166 6.829163399e-19 -0.005227440143)
(0.01714879148 6.60603021e-19 -0.004803681634)
(0.01728840082 6.626452018e-19 -0.004393003706)
(0.01736977213 6.641055353e-19 -0.003998877728)
(0.01739635393 6.44224926e-19 -0.003624706803)
(0.01737208239 6.579123953e-19 -0.003273817644)
(0.01730134331 6.638853847e-19 -0.002949472443)
(0.01718892418 6.881617841e-19 -0.002654906972)
(0.01703994023 6.576467525e-19 -0.00239339646)
(0.01685972671 5.933368e-19 -0.002168304234)
(0.01665369961 6.041393874e-19 -0.0019832339)
(0.01642721555 5.902059066e-19 -0.001841678777)
(0.01618504857 4.20989081e-19 -0.001749049443)
(0.01593256336 1.472168914e-18 -0.001703708836)
(0.01567003742 -2.847856577e-18 -0.001732069575)
(0.01541567972 -4.226424891e-18 -0.001736880133)
(0.01510407782 -5.046769817e-18 -0.002167804109)
(0.01507730535 -5.272255897e-18 -0.00109173332)
(0.01408037639 -3.745933385e-18 -0.007021089707)
(0.006396099002 -1.882342983e-18 0.08522887877)
(0.00115715703 4.397054985e-19 -0.01285289351)
(0.001983481763 1.460674847e-18 -0.01288517772)
(0.003105311446 -2.030155567e-17 -0.01283062448)
(0.004257774103 -6.992130075e-18 -0.0127178823)
(0.005404478949 8.927799554e-21 -0.01255657014)
(0.006530965663 1.06345295e-18 -0.0123505449)
(0.00762809982 5.646022741e-19 -0.01210276213)
(0.008688769164 2.79465453e-18 -0.0118158171)
(0.009706918972 -1.015946693e-17 -0.01149237242)
(0.01067722503 -1.322130827e-17 -0.01113523019)
(0.01159497175 1.178823027e-18 -0.01074736193)
(0.01245600921 1.885635893e-17 -0.01033191795)
(0.01325674338 1.971246845e-17 -0.009892224454)
(0.01399414123 1.123057405e-17 -0.009431773712)
(0.01466574244 3.57023935e-18 -0.008954209498)
(0.01526967352 3.580862765e-19 -0.008463309129)
(0.01580466156 5.200180159e-20 -0.007962962471)
(0.01627004579 4.320469642e-19 -0.007457148248)
(0.01666578543 6.556216664e-19 -0.006949907976)
(0.01699246219 6.856673116e-19 -0.006445318061)
(0.01725127644 7.026281711e-19 -0.005947460831)
(0.01744403588 6.735894329e-19 -0.005460395636)
(0.01757313638 6.751710466e-19 -0.004988131354)
(0.01764153512 6.800019674e-19 -0.004534602349)
(0.01765271723 6.561400167e-19 -0.004103650523)
(0.01761065695 6.671150031e-19 -0.003699013466)
(0.01751976901 6.695254227e-19 -0.003324328904)
(0.01738484615 7.005596696e-19 -0.002983162577)
(0.0172109775 6.560002851e-19 -0.00267905181)
(0.01700344252 6.195874362e-19 -0.002415534162)
(0.01676756387 5.776392454e-19 -0.002196266701)
(0.01650857609 6.678344627e-19 -0.002024713797)
(0.01623112026 4.675037314e-19 -0.00190562187)
(0.01594037765 1.498770744e-18 -0.001838832308)
(0.01563684108 -2.834871456e-18 -0.001842785775)
(0.01534084629 -4.264663379e-18 -0.001853445702)
(0.01497697779 -5.136539951e-18 -0.002167308078)
(0.01486144349 -5.181533869e-18 -0.001537947452)
(0.01371743731 -3.635369994e-18 -0.005643253343)
(0.006173162755 -1.78341442e-18 0.09434298779)
(0.001186426631 4.308993044e-19 -0.01450830177)
(0.002033977902 1.465473207e-18 -0.01454026424)
(0.003184602589 -2.023395598e-17 -0.01447672912)
(0.004366492063 -7.050256163e-18 -0.01434826138)
(0.005542199725 -1.639071388e-20 -0.01416516162)
(0.006696810718 1.061888865e-18 -0.0139315809)
(0.007820882653 5.594670107e-19 -0.0136507839)
(0.008907056121 2.799278362e-18 -0.01332566939)
(0.009949063 -9.991454787e-18 -0.01295922705)
(0.010941387 -1.321560105e-17 -0.0125546128)
(0.01187913825 9.305179906e-19 -0.01211517843)
(0.01275800882 1.859554014e-17 -0.01164447919)
(0.01357426222 1.974744182e-17 -0.01114626918)
(0.01432473819 1.142089069e-17 -0.01062448989)
(0.01500686465 3.698299049e-18 -0.01008325396)
(0.01561867242 3.898630367e-19 -0.009526825221)
(0.01615880976 3.697013374e-20 -0.008959595113)
(0.01662655495 4.308214968e-19 -0.008386055769)
(0.01702182491 6.572175324e-19 -0.007810769842)
(0.01734517836 7.010326873e-19 -0.007238337612)
(0.01759781198 7.170566771e-19 -0.006673362257)
(0.01778154852 6.905883914e-19 -0.006120414607)
(0.01789881644 6.90259676e-19 -0.005583999124)
(0.01795262055 6.660482507e-19 -0.005068523462)
(0.0179465045 6.495243306e-19 -0.004578275116)
(0.01788450592 6.771879673e-19 -0.004117404607)
(0.01777110025 6.867890684e-19 -0.003689919036)
(0.01761112812 7.019202793e-19 -0.003299698228)
(0.01740970698 6.532101091e-19 -0.002950524144)
(0.01717212829 6.285640067e-19 -0.002646094616)
(0.01690371412 5.975063249e-19 -0.002390099081)
(0.01660970383 6.741874372e-19 -0.002185975938)
(0.01629478605 4.978196087e-19 -0.002037824341)
(0.01596406933 1.480788583e-18 -0.00194683109)
(0.01561768423 -2.823298614e-18 -0.001923663817)
(0.01527184758 -4.284905219e-18 -0.001936056574)
(0.01485952741 -5.202400713e-18 -0.002128958911)
(0.01470160043 -5.140337191e-18 -0.001927445135)
(0.01342735817 -3.519009785e-18 -0.004120974768)
(0.00597747729 -1.717788458e-18 0.103179413)
(0.001219413968 4.255919708e-19 -0.01620768575)
(0.002090884433 1.485995575e-18 -0.01623978451)
(0.003273969449 -2.014895114e-17 -0.01616707257)
(0.0044890498 -7.132998852e-18 -0.01602230263)
(0.005697484381 -6.965061716e-20 -0.01581656269)
(0.006883839823 1.059656259e-18 -0.01555433038)
(0.008038320009 5.568310259e-19 -0.01523919799)
(0.009153283105 2.803044895e-18 -0.01487439001)
(0.01022222041 -9.797501102e-18 -0.01446323725)
(0.01123940005 -1.319148464e-17 -0.01400926257)
(0.01219973729 7.07466582e-19 -0.01351621129)
(0.01309874812 1.830932027e-17 -0.01298805654)
(0.01393253728 1.980382265e-17 -0.01242899319)
(0.01469780264 1.162810192e-17 -0.01184342494)
(0.01539184721 3.825741365e-18 -0.01123594678)
(0.01601259459 4.126108531e-19 -0.01061132321)
(0.01655860471 2.599485205e-20 -0.009974462353)
(0.01702908787 4.134060401e-19 -0.009330385845)
(0.01742391486 7.092980138e-19 -0.008684194454)
(0.01774362134 7.151119271e-19 -0.008041029952)
(0.01798940473 6.970391476e-19 -0.00740603415)
(0.01816311229 6.961480279e-19 -0.006784306755)
(0.01826721947 7.058725237e-19 -0.006180864051)
(0.01830479825 6.050035461e-19 -0.005600601093)
(0.01827947512 6.509028188e-19 -0.00504826118)
(0.01819537979 6.889559634e-19 -0.004528412995)
(0.01805708325 6.963137945e-19 -0.004045433485)
(0.01786951922 7.013834291e-19 -0.003603509993)
(0.01763789005 6.694087261e-19 -0.003206659946)
(0.01736756557 6.496338077e-19 -0.00285873705)
(0.01706394419 6.459413613e-19 -0.002563458923)
(0.01673236552 6.69609156e-19 -0.002324262878)
(0.01637771094 5.433103354e-19 -0.002144669758)
(0.01600514287 1.493818908e-18 -0.002026973304)
(0.01561570318 -2.719116941e-18 -0.00197468256)
(0.01522829613 -4.305225237e-18 -0.00198537359)
(0.01477130716 -5.17322849e-18 -0.002057839494)
(0.01455999156 -5.161810483e-18 -0.002279896313)
(0.0131621705 -3.409767902e-18 -0.002452147914)
(0.00580075574 -1.64536073e-18 0.1117668266)
(0.001256286911 4.529549038e-19 -0.01795641612)
(0.002154490376 1.514268355e-18 -0.01798916026)
(0.003373860957 -2.006854647e-17 -0.01790706515)
(0.004626052972 -7.217614994e-18 -0.01774535905)
(0.005871087275 -9.55716848e-20 -0.01751603099)
(0.007092948623 1.045279282e-18 -0.01722392326)
(0.008281441336 5.315686854e-19 -0.01687297316)
(0.009428605458 2.808299306e-18 -0.01646676136)
(0.0105276646 -9.571707585e-18 -0.01600897595)
(0.01157264746 -1.318382925e-17 -0.01550352247)
(0.01255825386 2.987354603e-19 -0.01495455513)
(0.01347980552 1.801310176e-17 -0.01436647971)
(0.01433323209 1.982228769e-17 -0.01374394607)
(0.01511507462 1.183093363e-17 -0.01309183443)
(0.01582249768 3.960734255e-18 -0.01241523683)
(0.01645330561 4.187473623e-19 -0.01171943408)
(0.01700595995 -2.066822309e-20 -0.01100986787)
(0.01747959551 3.786626852e-19 -0.01029210769)
(0.01787403277 6.263185305e-19 -0.00957181221)
(0.01818978424 6.924599103e-19 -0.008854685674)
(0.01842805283 7.059173315e-19 -0.008146430171)
(0.01859072025 6.785952899e-19 -0.00745269582)
(0.01868032449 6.841938773e-19 -0.006779031187)
(0.01870002562 6.85882543e-19 -0.006130837011)
(0.01865355945 6.797409161e-19 -0.005513326855)
(0.01854517961 6.894002158e-19 -0.004931496549)
(0.01837958982 6.803083512e-19 -0.004390098832)
(0.01816186263 6.949023006e-19 -0.003893630949)
(0.01789734146 6.553318663e-19 -0.003446344347)
(0.01759153749 6.185197093e-19 -0.003052249871)
(0.01724999639 5.895323804e-19 -0.002715098146)
(0.01687823204 6.67896896e-19 -0.002438358274)
(0.01648136798 4.86296803e-19 -0.0022250533)
(0.01606494031 1.539017783e-18 -0.002078507235)
(0.01563119495 -2.785608066e-18 -0.001996293397)
(0.01519987981 -4.297814704e-18 -0.002005637315)
(0.01470061666 -5.27307524e-18 -0.001954761623)
(0.01445793046 -5.160820836e-18 -0.002602797984)
(0.01293833115 -3.3533071e-18 -0.0006363161525)
(0.005636935187 -1.536547008e-18 0.1201251034)
(0.00129722877 4.402389331e-19 -0.01976011163)
(0.002225112982 1.525850365e-18 -0.01979406416)
(0.003484773419 -1.996652926e-17 -0.01970236219)
(0.004778175872 -7.312183395e-18 -0.01952301938)
(0.006063851904 -1.443193095e-19 -0.01926904955)
(0.007325140473 1.042299346e-18 -0.01894570635)
(0.008551400872 5.392212288e-19 -0.01855728578)
(0.009734318953 2.825006992e-18 -0.01810776451)
(0.01086682325 -9.345872451e-18 -0.01760120557)
(0.01194267896 -1.317364564e-17 -0.01704191572)
(0.01295635018 -4.283045825e-20 -0.01643447583)
(0.01390294643 1.767361647e-17 -0.01578374064)
(0.01477820598 1.985639921e-17 -0.01509483061)
(0.01557849801 1.206144895e-17 -0.01437311787)
(0.01630083461 4.116221186e-18 -0.01362420732)
(0.01694288819 4.473416198e-19 -0.01285391304)
(0.01750301103 -6.53880219e-20 -0.01206822893)
(0.01798025414 3.511593992e-19 -0.01127329296)
(0.01837438275 6.063024339e-19 -0.01047534445)
(0.01868588568 6.650330309e-19 -0.009680674654)
(0.01891597587 6.806295702e-19 -0.008895571687)
(0.01906657982 6.740509816e-19 -0.008126262083)
(0.01914031438 6.742014832e-19 -0.007378851762)
(0.01914045008 7.055982286e-19 -0.006659269982)
(0.01907086038 7.039468127e-19 -0.005973219698)
(0.01893595727 7.105899493e-19 -0.005326137563)
(0.01874061701 7.008944777e-19 -0.004723162214)
(0.01849009649 6.990190791e-19 -0.00416911028)
(0.01818993319 6.627879986e-19 -0.003668472667)
(0.0178458379 6.255197646e-19 -0.003225421886)
(0.0174635673 6.144077482e-19 -0.002843754132)
(0.01704887853 6.753013387e-19 -0.00252700311)
(0.01660718419 5.293483209e-19 -0.00227774481)
(0.01614434882 1.540478858e-18 -0.002100406995)
(0.0156631052 -2.770988673e-18 -0.001987235015)
(0.01518252236 -4.301321034e-18 -0.001993506701)
(0.01464082305 -5.314113067e-18 -0.001824972565)
(0.01436521798 -5.185474712e-18 -0.002905403395)
(0.01273251442 -3.287898201e-18 0.001327510117)
(0.005488374717 -1.480066501e-18 0.1282720584)
(0.001342441895 4.38660746e-19 -0.02162466343)
(0.002303103023 1.561455976e-18 -0.02166044599)
(0.003607256981 -1.984736853e-17 -0.021558892)
(0.004946168736 -7.427308325e-18 -0.02136113724)
(0.006276718827 -1.994282126e-19 -0.02108135415)
(0.007581533753 1.054739514e-18 -0.02072526865)
(0.008849485005 5.539558778e-19 -0.02029754475)
(0.01007186757 2.842903803e-18 -0.01980260233)
(0.01124128578 -9.099435246e-18 -0.01924489918)
(0.01235121789 -1.315742703e-17 -0.01862916564)
(0.01339587273 -3.464427682e-19 -0.017960429)
(0.01437013018 1.723785111e-17 -0.01724401097)
(0.01526952108 1.984762065e-17 -0.01648551932)
(0.01609022752 1.233938947e-17 -0.0156908343)
(0.01682909467 4.304686892e-18 -0.0148660904)
(0.01748364951 4.835272719e-19 -0.01401765304)
(0.01805212306 -9.527036213e-20 -0.01315208855)
(0.01853347293 3.121059688e-19 -0.0122761263)
(0.01892740304 5.353954699e-19 -0.01139661198)
(0.01923437701 5.481354299e-19 -0.01052045224)
(0.01945562188 6.405735322e-19 -0.009654551358)
(0.01959311927 6.494209543e-19 -0.008805743142)
(0.01964958194 6.348559192e-19 -0.007980721027)
(0.01962841452 7.507800045e-19 -0.007185970576)
(0.01953365814 7.274093271e-19 -0.006427708196)
(0.01936991995 7.069562961e-19 -0.005711830531)
(0.01914229146 7.046564147e-19 -0.0050438761)
(0.01885625973 6.630075131e-19 -0.004428994213)
(0.01851760595 6.875135783e-19 -0.003871926177)
(0.01813229596 6.633777974e-19 -0.00337701449)
(0.01770635482 6.457932501e-19 -0.002948116384)
(0.0172458363 6.770236052e-19 -0.002588862603)
(0.01675648522 5.997286889e-19 -0.002301412632)
(0.01624452202 1.528765087e-18 -0.002091318634)
(0.01571305022 -2.678030446e-18 -0.001945603128)
(0.0151805975 -4.334863503e-18 -0.001946097133)
(0.01458870367 -5.35773667e-18 -0.001666405183)
(0.01425372106 -5.252384497e-18 -0.00317107282)
(0.0125225838 -3.142322728e-18 0.003407367634)
(0.005354239714 -1.408364463e-18 0.1362269032)
(0.001392150906 4.39648517e-19 -0.02355626426)
(0.002388849823 1.607045953e-18 -0.02359456269)
(0.003741922222 -1.971788896e-17 -0.02348288613)
(0.005130865466 -7.52859166e-18 -0.02326586248)
(0.006510735042 -2.517995243e-19 -0.02295896282)
(0.0078633705 1.064757112e-18 -0.02256846621)
(0.00917712083 5.634784652e-19 -0.02209941857)
(0.01044285275 2.869097318e-18 -0.02155672287)
(0.01165281207 -8.82179732e-18 -0.02094526224)
(0.01280016955 -1.311028225e-17 -0.02027021578)
(0.0138788603 -8.572568088e-19 -0.01953707901)
(0.01488351787 1.678404515e-17 -0.01875165996)
(0.01580945 1.985659101e-17 -0.01792007135)
(0.01665263656 1.258928714e-17 -0.01704871839)
(0.01740974079 4.5221421e-18 -0.01614428233)
(0.01807812963 5.41086736e-19 -0.01521369879)
(0.01865589938 -1.042085691e-19 -0.01426412814)
(0.01914190298 2.757305046e-19 -0.01330291621)
(0.01953577521 5.929219958e-19 -0.01233754389)
(0.01983795151 6.583028882e-19 -0.01137556559)
(0.0200496762 6.467722972e-19 -0.01042453673)
(0.02017299621 6.49108983e-19 -0.009491934632)
(0.02021073787 6.620949815e-19 -0.008585075969)
(0.02016646485 6.784567487e-19 -0.007711035788)
(0.02004441783 6.768555211e-19 -0.006876573376)
(0.01984943811 7.06585433e-19 -0.006088070263)
(0.01958687784 7.073808951e-19 -0.00535148335)
(0.01926250243 7.320731766e-19 -0.004672309274)
(0.01888238626 6.840591363e-19 -0.004055554427)
(0.01845280366 6.716621953e-19 -0.003505744055)
(0.01798010285 6.410566918e-19 -0.003026811322)
(0.01747067449 7.385574958e-19 -0.002622505795)
(0.01693060881 5.547883461e-19 -0.002294586882)
(0.01636658477 1.603960655e-18 -0.00204981544)
(0.01578208707 -2.715167359e-18 -0.001869876243)
(0.01519439715 -4.332424757e-18 -0.001861552231)
(0.0145478808 -5.436236959e-18 -0.001473189673)
(0.01414473748 -5.207608406e-18 -0.00338195779)
(0.01231868477 -3.14556615e-18 0.005573695861)
(0.005227756796 -1.343771771e-18 0.1440039617)
(0.001446606046 4.413556352e-19 -0.02556144232)
(0.002482786676 1.647666331e-18 -0.02560301243)
(0.003889447475 -1.959518753e-17 -0.02548091246)
(0.005333184484 -7.661322929e-18 -0.02524366955)
(0.006767054217 -3.069656777e-19 -0.02490820958)
(0.008172031793 1.083526246e-18 -0.02448145439)