/*--------------------------------*- C++ -*----------------------------------*\
| =========                 |                                                 |
| \\      /  F ield         | OpenFOAM: The Open Source CFD Toolbox           |
|  \\    /   O peration     | Version:  v1912                                 |
|   \\  /    A nd           | Website:  www.openfoam.com                      |
|    \\/     M anipulation  |                                                 |
\*---------------------------------------------------------------------------*/
FoamFile
{
    version     2.0;
    format      ascii;
    class       volScalarField;
    location    "0.2";
    object      alpha.gas;
}
// * * * * * * * * * * * * * * * * * * * * * * * * * * * * * * * * * * * * * //

dimensions      [0 0 0 0 0 0 0];


internalField   nonuniform List<scalar> 
4800
(
5.132058655e-240
3.626594587e-235
1.802015188e-230
6.263382869e-226
1.638371285e-221
3.354457786e-217
5.575043917e-213
7.732756177e-209
9.122721298e-205
9.280572585e-201
8.28840644e-197
6.562307864e-193
4.643246343e-189
2.960599561e-185
1.712416248e-181
9.030332799e-178
4.376317254e-174
1.945798443e-170
7.92455064e-167
2.973223789e-163
1.011561746e-159
3.096755609e-156
8.274430287e-153
1.571213904e-149
5.425262398e-148
4.673679244e-145
3.3589388e-146
1.563946072e-159
3.069972233e-105
3.573406076e-107
0
7.306571746e-78
1.426305784e-75
1.430417081e-75
7.319977048e-61
0
2.397428173e-49
4.607254397e-63
3.855801435e-23
0.01408526282
4.219478366e-239
2.869462817e-234
1.386504125e-229
4.724471316e-225
1.207814897e-220
2.437323267e-216
4.024686755e-212
5.56055879e-208
6.582701865e-204
6.791616005e-200
6.174401078e-196
5.011143251e-192
3.672364304e-188
2.448607041e-184
1.497201325e-180
8.448509203e-177
4.417984494e-173
2.149441986e-169
9.776719003e-166
4.177354722e-162
1.684399493e-158
6.478046549e-155
2.419856043e-151
3.587339027e-149
3.588640127e-149
4.306789939e-139
1.807376802e-140
0
1.419511786e-102
6.462650365e-102
0
3.295886137e-74
3.513750875e-74
2.624240115e-63
6.51326588e-58
1.927246458e-76
1.97003683e-45
6.963903256e-65
0.0001966380235
0.02066766394
4.399127474e-237
3.156981864e-232
1.599936067e-227
5.718940348e-223
1.527291109e-218
3.189635623e-214
5.450672295e-210
7.721442327e-206
9.356841632e-202
9.786029423e-198
8.964111567e-194
7.281730007e-190
5.305261518e-186
3.4893813e-182
2.08851954e-178
1.144788305e-174
5.768814027e-171
2.68197969e-167
1.156424693e-163
4.649713113e-160
1.749664962e-156
6.233274229e-153
2.13635679e-149
1.93000807e-149
1.561485722e-146
1.70512042e-133
5.847139458e-135
0
0
2.915020073e-96
0
1.022156358e-72
0
1.175911711e-56
8.78556351e-57
7.500458729e-65
2.9465893e-43
4.590860775e-63
0.0005517318817
0.03038404166
6.656357825e-236
4.565766821e-231
2.211724473e-226
7.501128154e-222
1.907744201e-217
3.812835276e-213
6.163504532e-209
8.344519211e-205
9.574058043e-201
9.487520898e-197
8.255962571e-193
6.352669058e-189
4.366465506e-185
2.702647543e-181
1.51559218e-177
7.731894339e-174
3.59459841e-170
1.526541237e-166
5.866320274e-163
2.015009471e-159
6.02470688e-156
1.473444614e-152
1.968515942e-149
1.858463798e-149
2.573578765e-134
8.365676663e-130
2.757039401e-131
9.598240307e-135
0
3.298397779e-91
3.644489085e-110
1.023235945e-72
0
6.179647704e-54
8.782097044e-57
1.502509108e-46
1.995768856e-42
5.566222873e-68
0.0009512284637
0.0410534782
6.087811937e-235
4.391280038e-230
2.249543497e-225
8.11482141e-221
2.195152522e-216
4.700692895e-212
8.195492154e-208
1.195910786e-203
1.486142285e-199
1.60616555e-195
1.519900656e-191
1.274021445e-187
9.546731192e-184
6.437528498e-180
3.923871294e-176
2.166334734e-172
1.082260808e-168
4.86806152e-165
1.951181144e-161
6.852214079e-158
2.010633589e-154
4.505864294e-151
2.805030661e-149
1.858445198e-149
1.08501556e-131
4.867441729e-128
2.477388077e-129
1.393683327e-131
0
2.956025332e-88
2.164659449e-107
9.162683777e-73
5.764405269e-92
9.311917514e-53
8.822846008e-57
1.593680615e-44
2.000894849e-42
7.934868498e-66
0.001217749113
0.05000462499
8.231549776e-233
5.921406471e-228
3.005162572e-223
1.066747479e-218
2.822278137e-214
5.878146198e-210
9.904243002e-206
1.389441759e-201
1.650262305e-197
1.696300057e-193
1.518986053e-189
1.199061814e-185
8.422445213e-182
5.301126559e-178
3.003731338e-174
1.535490369e-170
7.075513219e-167
2.924684722e-163
1.073322713e-159
3.43813119e-156
9.163184949e-153
1.854723292e-149
4.84590588e-151
1.409337835e-143
7.360192547e-132
1.861312523e-127
8.365498417e-125
2.344238937e-126
0
6.88417171e-87
0
3.49900559e-73
2.54783116e-92
1.146272327e-52
8.782097044e-57
3.262820652e-44
1.856331731e-42
0
0.001350035921
0.0560902994
4.411023077e-234
3.132208404e-229
1.573589272e-224
5.543740809e-220
1.461342126e-215
3.043569621e-211
5.12485841e-207
7.228790256e-203
8.631089822e-199
8.958300729e-195
8.128590207e-191
6.524880054e-187
4.679956632e-183
3.023524508e-179
1.770190904e-175
9.43135136e-172
4.582226229e-168
2.029497111e-164
8.166937622e-161
2.978894082e-157
9.685771207e-154
2.78628855e-150
1.036749838e-151
8.333213314e-136
0
3.859636549e-124
1.175197207e-121
2.78544908e-123
1.573789934e-142
1.101373238e-85
5.534948688e-105
3.136668531e-74
1.27161251e-92
1.146292831e-52
8.822846008e-57
2.751094009e-44
8.107805603e-43
0
0.001545016893
0.05995569635
3.051429438e-233
1.729665325e-228
7.116486537e-224
2.107556762e-219
4.777515713e-215
8.651502911e-211
1.292608418e-206
1.634820084e-202
1.771304536e-198
1.673333879e-194
1.385634743e-190
1.011009689e-186
6.542161581e-183
3.743444404e-179
1.885662219e-175
8.289814855e-172
3.130564627e-168
9.883089157e-165
2.490010907e-161
4.609381776e-158
5.377223991e-155
3.995444775e-152
3.994747196e-152
6.847381876e-136
2.128614547e-155
2.63465786e-122
2.630207901e-120
6.428678941e-122
1.157159326e-141
1.072549255e-82
2.627101492e-101
1.526914494e-72
2.800892733e-91
7.62440994e-53
8.863647895e-57
1.087347765e-44
9.588481852e-44
0
0.00173450615
0.0626684625
1.036704026e-230
5.799457761e-226
2.343762683e-221
6.792061095e-217
1.501095513e-212
2.637674032e-208
3.810415313e-204
4.639934309e-200
4.819623442e-196
4.344348282e-192
3.41700052e-188
2.356507765e-184
1.434593454e-180
7.683975064e-177
3.604621095e-173
1.467778935e-169
5.101841249e-166
1.47019186e-162
3.333872695e-159
5.367667943e-156
4.684222923e-153
3.87699595e-152
1.098820355e-149
1.224146345e-136
0
1.0053178e-121
2.680714459e-120
9.077254243e-122
0
2.017024417e-81
7.071543955e-83
1.55261936e-71
7.042538132e-92
1.828839336e-53
8.904502229e-57
1.214490523e-45
1.853634303e-45
0
0.001920866088
0.06493586647
2.631114002e-228
1.463322764e-223
5.839631161e-219
1.660440736e-214
3.57844305e-210
6.094051178e-206
8.482917011e-202
9.898228706e-198
9.799509565e-194
8.376879596e-190
6.218974753e-186
4.029887142e-182
2.295755025e-178
1.146246271e-174
4.994364783e-171
1.882543148e-167
6.037956796e-164
1.600622372e-160
3.328994641e-157
4.900589273e-154
3.8807638e-151
4.867192813e-152
7.542049329e-142
1.520000177e-138
5.603130084e-133
1.045889073e-121
3.048355378e-120
7.363550335e-119
0
2.024648651e-81
5.808041943e-84
6.152866525e-72
5.694580797e-75
7.459777288e-55
8.901035592e-57
2.31796009e-47
3.669386326e-48
0
0.002105422824
0.06671595756
4.129178443e-226
2.28292689e-221
8.994451461e-217
2.508641384e-212
5.270057181e-208
8.694740181e-204
1.165745398e-199
1.302876863e-195
1.22891963e-191
9.958854753e-188
6.976338857e-184
4.246679017e-180
2.263545118e-176
1.053454314e-172
4.263628223e-169
1.488013779e-165
4.405731101e-162
1.075189417e-158
2.053519888e-155
2.770517917e-152
1.996750225e-149
3.120038201e-150
1.331426368e-140
1.446549536e-142
1.097796063e-125
1.224498596e-140
2.876419753e-115
1.928834769e-114
4.638182364e-125
1.860815963e-81
5.903798779e-84
3.489510094e-73
1.514129306e-63
4.856715526e-68
2.765326192e-52
5.518267726e-50
6.930889537e-52
0
0.002286947475
0.06777147375
3.03271444e-224
1.66641399e-219
6.480491929e-215
1.772587387e-210
3.62914571e-206
5.79955144e-202
7.488225617e-198
8.014981543e-194
7.201879715e-190
5.532283918e-186
3.656716041e-182
2.091095224e-178
1.042965141e-174
4.525509882e-171
1.701986363e-167
5.503128955e-164
1.505592403e-160
3.387984043e-157
5.959380859e-154
7.411859874e-151
4.869026778e-148
3.180525605e-150
9.102098341e-141
4.622527881e-148
7.308133161e-126
0
7.751274678e-110
3.050351124e-112
0
7.72010896e-82
1.527248844e-83
0
1.265215709e-63
5.207495599e-68
1.023538419e-52
6.907194402e-53
8.724750522e-56
0
0.002470090541
0.06774816101
1.525132566e-224
7.561141337e-220
2.666109466e-215
6.617268519e-211
1.229809075e-206
1.790588536e-202
2.122787232e-198
2.090901241e-194
1.7462558e-190
1.257183921e-186
7.902595203e-183
4.378281467e-179
2.16886975e-175
9.658586065e-172
3.895902314e-168
1.433200264e-164
4.802279313e-161
1.4489455e-157
3.81220287e-154
8.063624435e-151
6.892973046e-148
1.28124018e-149
1.27734526e-141
4.341842191e-148
1.22086523e-126
1.066342664e-145
2.076933675e-106
2.743101628e-112
7.200036672e-87
7.761165679e-83
4.04304046e-84
0
3.396940606e-64
4.85671247e-68
5.122373255e-54
1.9196081e-55
0
2.018810978e-07
0.002655364607
0.06822054526
7.498006501e-224
4.081093286e-219
1.584502514e-214
4.338597927e-210
8.91684711e-206
1.439104621e-201
1.895517832e-197
2.080221936e-193
1.936912249e-189
1.559055864e-185
1.093955889e-181
6.762203958e-178
3.721495508e-174
1.82546966e-170
8.013072063e-167
3.156128409e-163
1.106935822e-159
3.404332932e-156
8.880487691e-153
1.813590488e-149
1.15935146e-146
4.136193319e-147
1.834633824e-152
1.23460711e-132
2.79930579e-128
1.324421563e-130
5.905075544e-105
3.117570474e-101
3.736726487e-87
1.299970378e-83
2.310649158e-85
1.398414658e-89
1.619450945e-65
5.207495599e-68
1.849393626e-56
1.952520119e-58
2.724371437e-80
4.474522029e-07
0.002843636062
0.06826864565
4.049485855e-224
2.247318147e-219
8.899376285e-215
2.501996809e-210
5.306782249e-206
8.868626607e-202
1.206168153e-197
1.378351622e-193
1.333714262e-189
1.117224823e-185
8.131481001e-182
5.22413084e-178
2.957061142e-174
1.486993767e-170
6.646336291e-167
2.629807522e-163
9.169140552e-160
2.794675068e-156
7.265656672e-153
1.528482477e-149
1.382838982e-146
3.507516419e-145
2.659384318e-150
1.230066635e-132
5.472220702e-131
0
3.521877097e-107
8.749836226e-93
0
1.016377621e-82
7.376438175e-102
7.312796905e-71
8.027221675e-68
4.85671247e-68
2.988965804e-60
2.528235565e-62
1.989031124e-83
7.018207739e-07
0.003024734502
0.06851048263
5.924325079e-225
2.690460209e-220
9.346429178e-216
2.399153394e-211
4.76509648e-207
7.632676104e-203
1.004619379e-198
1.107339265e-194
1.048824808e-190
8.549199069e-187
6.111851038e-183
3.836177912e-179
2.147359018e-175
1.070108274e-171
4.798646947e-168
1.948899799e-164
7.210100945e-161
2.464625331e-157
7.94335151e-154
2.49413061e-150
1.197461593e-146
1.621936695e-143
1.413442725e-152
1.94140947e-133
7.25067222e-135
4.151467181e-139
2.27473776e-136
4.551430842e-93
1.440799596e-96
1.017674312e-82
0
2.439879895e-71
2.23430457e-78
1.508800511e-65
3.695865877e-64
9.070068502e-65
7.136250902e-85
9.749084049e-07
0.003172211288
0.06864136392
5.394153076e-223
1.573730188e-218
3.371843333e-214
5.233444258e-210
6.250327762e-206
5.992497133e-202
4.758572073e-198
3.196186291e-194
1.842152959e-190
9.251136272e-187
4.085258056e-183
1.601736238e-179
5.649111022e-176
1.816667857e-172
5.449380245e-169
1.574769286e-165
4.517226533e-162
1.315494212e-158
3.913625521e-155
1.257052532e-151
3.846295561e-147
1.62611821e-143
2.660579351e-150
1.738831406e-134
5.938813226e-137
1.604497873e-139
0
4.374757695e-94
0
5.705791571e-83
2.690151928e-98
9.490133523e-73
1.462053201e-78
5.188240871e-66
1.53433362e-64
2.244153807e-66
3.261972824e-90
1.271666741e-06
0.003293463228
0.06877855471
1.093145596e-220
3.068734326e-216
6.270271425e-212
9.19772462e-208
1.02876964e-203
9.148674203e-200
6.662901291e-196
4.055862291e-192
2.091115214e-188
9.243685365e-185
3.523833931e-181
1.162441909e-177
3.328556408e-174
8.238680317e-171
1.753123358e-167
3.161793743e-164
4.7137524e-161
5.551141969e-158
4.721922998e-155
2.469592699e-152
5.858614893e-149
6.541344915e-144
2.621124726e-152
7.618541082e-136
4.719274807e-139
4.52439894e-135
3.579067604e-99
4.09300081e-96
3.944052087e-93
1.235332003e-101
1.467370654e-79
2.254987434e-75
2.234304569e-78
3.036295086e-67
3.539833614e-65
1.475877823e-67
3.005827978e-90
1.595069241e-06
0.003395066077
0.0689224138
1.754329826e-218
4.770292555e-214
9.363055843e-210
1.308593759e-205
1.383522506e-201
1.153531881e-197
7.801712506e-194
4.367559949e-190
2.050225157e-186
8.154255132e-183
2.759324572e-179
7.955017613e-176
1.955187691e-172
4.067932043e-169
7.101281968e-166
1.023287192e-162
1.185549793e-159
1.057045773e-156
6.687552871e-154
2.440771661e-151
4.823821082e-150
4.160028166e-145
1.497372013e-150
2.411180108e-138
0
9.710379727e-122
4.980899477e-100
4.761628261e-100
6.060182579e-91
1.079372087e-110
5.032089367e-80
7.937741829e-85
8.750818538e-74
1.987188907e-69
1.693960728e-66
3.743715686e-69
1.894065146e-89
1.92144786e-06
0.003481330213
0.06904332883
2.062358836e-216
5.486939989e-212
1.046694431e-207
1.41272968e-203
1.434030393e-199
1.1415615e-195
7.327513833e-192
3.870311607e-188
1.705516236e-184
6.335477355e-181
1.990230756e-177
5.29574969e-174
1.193551387e-170
2.259956795e-167
3.556631389e-164
4.573262842e-161
4.664391521e-158
3.61219539e-155
1.965812254e-152
6.269131947e-150
2.347157883e-148
2.369987012e-147
6.434362164e-151
0
0
3.022847093e-105
4.246767843e-103
1.562963111e-97
1.523802919e-90
0
1.556778822e-81
7.620509408e-85
4.029237142e-74
1.076259796e-72
8.767250908e-69
1.171251879e-71
1.563690522e-76
2.217972031e-06
0.003555137473
0.06918565432
1.500700966e-214
3.935594167e-210
7.366740908e-206
9.71312254e-202
9.589652711e-198
7.393374002e-194
4.57713869e-190
2.321111388e-186
9.785465547e-183
3.464347674e-179
1.032631534e-175
2.596396841e-172
5.506740113e-169
9.755717901e-166
1.427555999e-162
1.691970861e-159
1.570738508e-156
1.084497942e-153
5.067772006e-151
1.289769711e-148
5.98709403e-147
9.223425824e-150
1.812852576e-148
0
1.644169345e-110
2.058991901e-106
1.863108216e-106
5.682005624e-97
4.758596787e-91
1.661846694e-110
2.979451915e-84
7.937741829e-85
1.952636713e-75
5.818140965e-77
2.994368617e-72
2.088270169e-75
0
2.486417937e-06
0.003618808333
0.06929227845
5.239765556e-213
1.338075555e-208
2.445711216e-204
3.155780247e-200
3.0504896e-196
2.302681591e-192
1.395979373e-188
6.928364941e-185
2.858889605e-181
9.858678062e-178
2.852213735e-174
6.928139645e-171
1.409264857e-167
2.374314161e-164
3.264882531e-161
3.576576408e-158
2.994207704e-155
1.782802798e-152
6.50680336e-150
8.627624911e-148
1.6922583e-146
6.626940705e-148
0
1.27092498e-115
2.290633297e-111
3.071371594e-123
5.181806812e-103
2.989418721e-96
1.713187897e-92
2.135335084e-109
2.1311942e-85
6.024298797e-82
5.389764854e-78
8.728234436e-81
9.004351651e-77
3.880754565e-80
6.160435345e-87
2.729420198e-06
0.003674086899
0.06941283061
3.196842267e-211
8.066630217e-207
1.448674516e-202
1.826658682e-198
1.716325923e-194
1.252847195e-190
7.308863034e-187
3.474548279e-183
1.367859849e-179
4.484280364e-176
1.229660391e-172
2.822391775e-169
5.415612905e-166
8.588471258e-163
1.10823013e-159
1.13359718e-156
8.777837421e-154
4.733129431e-151
1.478790947e-148
1.254939082e-146
1.380778658e-146
0
1.211784761e-120
2.395051593e-116
1.062869873e-113
2.881623882e-114
2.478762574e-101
2.643940614e-97
2.171131508e-95
9.947660494e-91
2.467743392e-86
9.009810678e-83
5.341435495e-82
9.269777469e-85
2.52037021e-81
7.735953762e-85
1.992795308e-88
2.94957225e-06
0.003722239701
0.0695392232
2.363374545e-210
5.649274257e-206
9.690683035e-202
1.179361305e-197
1.084112972e-193
7.852839697e-190
4.618303857e-186
2.25056445e-182
9.210126885e-179
3.190029944e-175
9.374401453e-172
2.324983421e-168
4.821649628e-165
8.232879365e-162
1.128699021e-158
1.191813385e-155
9.057250734e-153
4.335578634e-150
8.716781741e-148
1.864214139e-146
1.372389022e-146
7.540940071e-126
3.019923055e-121
2.845444306e-118
2.543261055e-118
2.172150749e-106
3.436908261e-102
9.386633296e-100
5.954534098e-97
5.204235103e-91
5.333623749e-88
7.821638611e-85
8.791731788e-87
6.522828907e-89
6.622140676e-86
1.68892997e-89
0
3.149380823e-06
0.003764397208
0.06964869527
3.421730766e-209
9.510604189e-205
1.891346708e-200
2.649791312e-196
2.770914407e-192
2.25128083e-188
1.459573487e-184
7.686153976e-181
3.329660482e-177
1.194114122e-173
3.545364944e-170
8.690556812e-167
1.744989931e-163
2.833281079e-160
3.625603461e-157
3.512115848e-154
2.401230834e-151
9.997534611e-149
1.362108134e-146
1.418216723e-146
1.438953622e-146
3.354363344e-126
6.200949375e-123
5.696992078e-123
1.780219821e-111
5.291799743e-107
2.799506051e-104
2.486094868e-104
4.095058393e-96
3.912879982e-92
9.443004901e-91
1.895015401e-88
1.393181021e-91
3.125099779e-93
1.652807662e-90
3.982342159e-94
5.220427057e-101
3.331308763e-06
0.00380155246
0.06974378418
2.416084291e-208
6.15826346e-204
1.118725831e-199
1.427232728e-195
1.355552439e-191
9.981310232e-188
5.853457987e-184
2.783199881e-180
1.08522716e-176
3.491998614e-173
9.28989941e-170
2.038182115e-166
3.660850694e-163
5.31170227e-160
6.092430392e-157
5.335300971e-154
3.361123478e-151
1.346512135e-148
2.235898754e-146
3.719664809e-146
3.664772771e-131
1.715473848e-127
1.816841854e-136
7.1090602e-119
8.970077393e-112
1.140690726e-108
1.054684032e-108
2.179624961e-101
1.015162882e-96
2.250079099e-94
7.675183526e-95
2.22448025e-93
2.052369761e-96
1.198548743e-97
3.959929834e-95
9.680541119e-99
2.044283666e-102
3.497764079e-06
0.003834553378
0.06982712723
1.958929436e-208
4.815026739e-204
8.479273583e-200
1.054173661e-195
9.81045875e-192
7.119229795e-188
4.140778684e-184
1.966923086e-180
7.73026905e-177
2.537125179e-173
7.006024946e-170
1.640357702e-166
3.289063454e-163
5.71279893e-160
8.62006534e-157
1.09469866e-153
1.04956866e-150
5.66809875e-148
2.514060408e-146
3.773898117e-137
4.746486335e-132
5.34815266e-130
4.51221986e-135
1.376340147e-116
4.644311591e-113
9.369826487e-112
5.951383382e-109
1.654301429e-101
2.22355091e-98
6.111384677e-98
1.641903167e-99
2.240680848e-98
2.880461124e-101
3.997742757e-102
9.192495366e-100
2.353161935e-103
3.173773357e-105
3.651060795e-06
0.00386412713
0.06990082657
3.113114224e-209
8.85645246e-205
1.871391607e-200
2.916966107e-196
3.583144855e-192
3.63138445e-188
3.121924624e-184
2.30778851e-180
1.471397693e-176
8.060736607e-173
3.763580905e-169
1.48056639e-165
4.832160695e-162
1.280170969e-158
2.662967566e-155
4.111483299e-152
4.209191125e-149
2.062445101e-146
4.534614191e-146
2.576153375e-137
4.049124175e-134
1.023112867e-143
1.868412824e-122
1.808576892e-117
1.392786581e-115
1.242082826e-115
1.417195655e-106
1.027124561e-102
2.407190796e-101
1.317503299e-102
3.447517126e-104
2.022147417e-103
3.915170909e-106
1.209833446e-106
2.081339646e-104
5.634242352e-108
2.026829291e-109
3.79341566e-06
0.00389091553
0.06996663462
9.516998215e-210
3.201139024e-205
8.093985043e-201
1.502534571e-196
2.156317355e-192
2.478294567e-188
2.333762552e-184
1.827165095e-180
1.200040376e-176
6.641756445e-173
3.099720002e-169
1.215741535e-165
3.973926326e-162
1.066119144e-158
2.285845016e-155
3.734616774e-152
4.226048989e-149
2.580706403e-146
1.05402313e-142
9.09566835e-139
1.453862561e-137
4.680388581e-140
9.074483661e-123
1.356743831e-119
4.873097323e-132
6.242264855e-112
2.42855332e-107
2.993937122e-105
8.451905552e-106
2.648328781e-107
7.201905307e-109
1.73775207e-108
5.20990406e-111
3.397386478e-111
4.611368693e-109
1.319849183e-112
3.936317314e-114
3.926989687e-06
0.003915497393
0.07002605226
1.348647673e-209
2.842799947e-205
4.348498652e-201
4.800297084e-197
4.129881238e-193
2.977900898e-189
1.931414258e-185
1.190265263e-181
7.079807815e-178
3.970816747e-174
2.024620582e-170
9.103660258e-167
3.532235733e-163
1.161398651e-159
3.170977233e-156
6.985584855e-153
1.184661363e-149
1.408347217e-146
1.568194674e-143
1.300450172e-141
1.126025306e-141
2.984331595e-129
1.374474762e-124
3.117771463e-123
6.168270622e-126
3.715583741e-112
2.963262723e-109
2.92123284e-109
1.328729289e-110
4.970296593e-112
1.498008239e-113
1.583568676e-113
6.801794629e-116
8.960631634e-116
9.996618693e-114
3.01323597e-117
7.209627912e-119
4.053928597e-06
0.003938409297
0.07008039221
1.525668253e-209
3.143336168e-205
4.659711897e-201
4.88983204e-197
3.846386765e-193
2.359856374e-189
1.159632921e-185
4.647586929e-182
1.539039477e-178
4.257980387e-175
9.988938828e-172
2.051026807e-168
3.972821559e-165
8.259160925e-162
2.002134107e-158
5.236700639e-155
1.297588096e-151
2.839254193e-148
1.577167271e-145
5.204516157e-146
9.894522567e-135
2.119592157e-130
4.05169244e-128
3.159051655e-128
2.433806516e-118
7.577416018e-114
1.476559804e-112
5.109116199e-114
2.136761492e-115
8.805860049e-117
3.064604238e-118
1.63108248e-118
8.729586289e-121
2.233230452e-120
2.115133443e-118
6.694935963e-122
2.585611512e-120
4.176416163e-06
0.003960174187
0.07013082343
1.44460606e-209
2.601795944e-205
3.813142841e-201
4.356707381e-197
3.977592384e-193
2.944144963e-189
1.786099852e-185
8.962861379e-182
3.747170522e-178
1.311331371e-174
3.848060664e-171
9.453227201e-168
1.932829681e-164
3.251815543e-161
4.414831716e-158
4.683198147e-155
3.674446615e-152
1.927185243e-149
5.394955007e-147
2.874489966e-146
1.694605978e-135
8.591733558e-133
1.445350734e-144
1.681904059e-123
1.809673905e-119
3.036547677e-117
2.560520212e-117
9.353811094e-119
3.486220596e-120
1.488419921e-121
6.097933071e-123
1.874322072e-123
1.107633384e-125
5.277321306e-125
4.352717303e-123
1.42285464e-126
0
4.296767721e-06
0.003981358052
0.07017841666
2.287935818e-209
2.812845542e-205
2.599413329e-201
1.839949704e-197
1.101605222e-193
5.967133702e-190
2.981679504e-186
1.352400975e-182
5.434896684e-179
1.903039036e-175
5.759476225e-172
1.502721361e-168
3.382738067e-165
6.601212237e-162
1.130331777e-158
1.733754792e-155
2.414253099e-152
2.926740462e-149
2.44052498e-146
3.289159772e-142
9.138653828e-138
1.189795605e-136
5.801078243e-144
3.192131012e-124
1.069870846e-121
3.152876786e-122
3.88588215e-122
1.706089306e-123
5.749040491e-125
2.432023454e-126
1.17366177e-127
2.277938066e-128
1.403139255e-130
1.185505506e-129
8.68267437e-128
0
0
4.417623189e-06
0.004002679367
0.07022424173
1.667224003e-208
2.290600282e-204
2.259065408e-200
1.57370437e-196
8.200067546e-193
3.325621776e-189
1.078006697e-185
2.843944216e-182
6.185169501e-179
1.120712031e-175
1.713902761e-172
2.270838727e-169
2.77401477e-166
3.525618451e-163
5.28111637e-160
9.344565583e-157
1.777899312e-153
3.322198355e-150
5.681820639e-147
9.457504529e-144
7.645930045e-142
5.729850739e-142
7.837838926e-131
2.079507946e-126
2.992986417e-125
3.906906925e-127
5.182285665e-127
3.021995985e-128
9.593456879e-130
3.893935027e-131
2.185440486e-132
2.879422447e-133
1.831470099e-135
2.232951412e-134
0
0
0
4.542264979e-06
0.00402522326
0.07027153338
1.793168888e-208
2.450041466e-204
2.400277973e-200
1.659569063e-196
8.577361288e-193
3.448714631e-189
1.107734492e-185
2.893389005e-182
6.21814124e-179
1.107501094e-175
1.640802374e-172
2.0233432e-169
2.07235884e-166
1.755052819e-163
1.221877902e-160
6.972151315e-158
3.31653782e-155
1.496171845e-152
1.145053501e-149
7.084800429e-147
2.799938798e-146
4.385206783e-137
1.977300021e-132
2.288737386e-130
4.819509789e-130
6.977733437e-132
6.16018055e-132
5.129596955e-133
1.613925015e-134
6.066124381e-136
3.953665757e-137
3.487475333e-137
2.566110744e-136
4.515854358e-131
2.827649347e-128
1.31112326e-124
1.879394026e-118
4.676161799e-06
0.004049709088
0.07019831016
1.847032236e-209
2.605039869e-205
2.647632267e-201
1.910915776e-197
1.039225854e-193
4.443672359e-190
1.540560063e-186
4.437077486e-183
1.085218174e-179
2.304328569e-176
4.346206985e-173
7.431925832e-170
1.165008003e-166
1.666190698e-163
2.129199108e-160
2.354244063e-157
2.162664831e-154
1.561244711e-151
8.028551516e-149
2.271942556e-146
3.15471453e-143
6.688733322e-138
1.468925625e-135
1.85631053e-135
6.115369652e-135
2.858658669e-136
2.530784415e-136
1.830977346e-135
2.844562442e-134
1.198361218e-133
1.387103401e-132
2.822349235e-131
8.457072707e-130
5.491880299e-127
7.437239924e-123
4.3077542e-119
5.027610655e-116
4.825387887e-06
0.004076059182
0.07005414375
9.22661863e-212
1.553480817e-207
1.900186739e-203
1.666131052e-199
1.113362997e-195
5.932041384e-192
2.606971123e-188
9.71926681e-185
3.160341786e-181
9.289647807e-178
2.605365762e-174
7.418615302e-171
2.181227004e-167
6.220037943e-164
1.562324661e-160
3.185605724e-157
4.955840827e-154
5.504920811e-151
3.825352569e-148
9.234749949e-146
7.010567446e-143
4.336950838e-140
5.165133789e-140
6.378105019e-136
1.236091492e-131
1.345139877e-130
3.201029375e-131
1.530823105e-129
2.058607088e-128
7.332482766e-128
1.919887125e-126
4.503004418e-125
1.97882792e-123
8.421901274e-122
5.112227797e-119
1.277511416e-116
0
4.992712597e-06
0.004105626731
0.0700039261
1.960418794e-215
5.093097779e-211
1.232067502e-206
3.413984433e-202
1.118034576e-197
3.303718616e-193
7.475858276e-189
1.250253749e-184
1.557117298e-180
1.467944153e-176
1.063646653e-172
5.992885782e-169
2.642122617e-165
9.106937385e-162
2.436440126e-158
5.003013019e-155
7.668693085e-152
8.068034484e-149
5.285308645e-146
7.071276784e-141
4.94815568e-139
2.094988808e-137
1.003537732e-136
8.840260914e-137
4.18461166e-129
6.133519735e-126
2.341876041e-125
1.208184059e-123
1.28805115e-122
4.446665611e-122
2.539832068e-120
2.25686093e-118
3.561221256e-117
5.699981489e-116
4.506697868e-117
0
0
5.184234749e-06
0.004139690286
0.06988857185
2.981780735e-213
7.49465201e-209
1.499404324e-204
2.64265695e-200
4.702355328e-196
8.016952058e-192
1.159384784e-187
1.333653363e-183
1.200792592e-179
8.478372043e-176
4.720140861e-172
2.08032802e-168
7.261430834e-165
1.997466525e-161
4.276268435e-158
6.957463561e-155
8.221871346e-152
6.383354488e-149
2.464501789e-146
1.318912859e-138
8.94028688e-134
5.787587596e-132
4.796684975e-131
1.263179365e-130
1.098720653e-130
1.021440735e-123
1.814172863e-119
7.18704997e-118
6.580834455e-117
1.068311346e-107
9.248499116e-113
2.982206133e-112
5.625143125e-111
4.170024858e-110
0
0
0
5.416430772e-06
0.00417757746
0.06965494801
8.75522415e-211
1.994685164e-206
3.354850159e-202
4.123971508e-198
3.94034751e-194
3.04824808e-190
1.955295001e-186
1.052502657e-182
4.77423889e-179
1.823861767e-175
5.847143946e-172
1.564187959e-168
3.464258436e-165
6.283429224e-162
9.190384015e-159
1.059556742e-155
9.289377651e-153
5.79391154e-150
2.23137935e-147
2.547110768e-146
4.017064982e-131
1.197910838e-126
2.690188858e-125
6.903353996e-125
2.570358494e-124
1.998890851e-124
5.010093154e-115
3.173617321e-112
3.947896162e-105
2.015827934e-104
6.033885455e-107
2.190955851e-105
6.500883427e-105
2.576866508e-104
3.80769838e-105
0
4.395089621e-94
5.671922969e-06
0.004220658872
0.06946802292
1.158514782e-208
2.249405583e-204
3.112224182e-200
3.020313101e-196
2.17781568e-192
1.214299391e-188
5.376664604e-185
1.924447661e-181
5.633732619e-178
1.358844266e-174
2.711946688e-171
4.49340346e-168
6.237815088e-165
7.562998743e-162
9.38055267e-159
1.591349891e-155
3.716831895e-152
1.012537789e-148
2.427811855e-145
5.778487935e-142
4.061999711e-142
3.871777895e-124
3.076550588e-120
2.666730622e-119
7.6977272e-118
1.454267355e-117
6.544795155e-113
1.755150593e-105
2.035499208e-102
1.411697821e-102
6.089070657e-100
2.613206061e-99
7.424298348e-99
1.380592108e-98
1.933402674e-99
6.328583315e-109
2.462008456e-89
5.989221892e-06
0.004266128837
0.06952325779
4.712365633e-209
7.179422065e-205
7.884106311e-201
6.186861631e-197
3.735096388e-193
1.869138279e-189
8.451825616e-186
3.743071218e-182
1.658953614e-178
7.004457889e-175
2.637160316e-171
8.454013869e-168
2.245965471e-164
4.852129071e-161
8.354427538e-158
1.114706394e-154
1.101407901e-151
7.316353167e-149
2.473602857e-146
5.730562516e-139
2.196437327e-136
2.234657387e-136
5.658757173e-118
4.332844683e-113
6.066783682e-112
4.156322253e-111
3.133004053e-110
2.091695766e-110
5.794639286e-103
1.127618472e-95
4.4187974e-94
3.508425324e-93
6.941319412e-93
6.865137414e-93
7.655070184e-94
1.016537941e-103
1.431550472e-84
6.337336674e-06
0.004316827994
0.06895020052
2.589637455e-210
3.813188338e-206
4.09272364e-202
3.206324066e-198
1.996492405e-194
1.063789087e-190
5.104674555e-187
2.242631128e-183
8.915099282e-180
3.151082896e-176
9.86170995e-173
2.804750265e-169
7.97279183e-166
2.644117315e-162
9.535310036e-159
2.743473165e-155
6.242218142e-152
1.209833542e-148
2.490426235e-146
4.834513276e-146
3.013081055e-132
1.034724614e-130
0
1.727969892e-110
3.659495972e-106
9.240772218e-105
7.670233804e-104
1.717328822e-103
1.265355602e-103
3.337380356e-93
1.270134219e-88
3.036235555e-87
5.591768968e-87
3.162109927e-87
2.475146032e-88
1.891133119e-99
8.595729008e-80
6.744410415e-06
0.004364139793
0.06867793193
4.539734608e-212
6.492114638e-208
6.825367061e-204
5.397986358e-200
4.312698045e-196
6.716463904e-192
1.557761215e-187
2.924732333e-183
3.999773564e-179
4.158282923e-175
3.582867646e-171
2.865678969e-167
2.15323889e-163
1.300260124e-159
5.443390285e-156
1.936629788e-152
7.85252558e-149
2.17796934e-145
2.286564898e-141
4.749446087e-146
4.607555189e-145
2.879044856e-125
2.599028245e-121
1.704946518e-121
3.807166927e-103
8.824831231e-99
1.545456762e-97
1.90864106e-97
2.270009988e-90
2.224914322e-93
4.631413126e-86
3.446847354e-82
3.702257071e-81
1.31989103e-81
7.077919943e-83
3.260559852e-81
1.364220519e-75
7.177369949e-06
0.004411568035
0.06851739271
2.780598435e-210
4.283418738e-206
5.090990612e-202
7.429632363e-198
2.354220468e-193
7.565567063e-189
1.678213028e-184
2.522470346e-180
2.643879085e-176
1.988655429e-172
1.100094998e-168
4.560549098e-165
1.429778546e-161
3.376579436e-158
5.916273883e-155
7.471920798e-152
6.255633404e-149
2.618662114e-146
5.884607754e-138
1.247205671e-134
0
3.278398757e-123
2.04244391e-118
1.076432292e-115
0
5.482160635e-96
1.917221456e-92
1.568459506e-90
5.39274515e-87
2.387662738e-88
1.593392405e-88
8.970599144e-80
1.204192621e-76
4.618002e-76
2.531899729e-77
4.062121718e-75
2.271716336e-73
7.646849496e-06
0.004451356383
0.06829744605
2.820935825e-209
4.132558175e-205
4.978228617e-201
5.206308766e-197
5.156872502e-193
4.747490549e-189
3.805912517e-185
2.550560678e-181