/*--------------------------------*- C++ -*----------------------------------*\
| =========                 |                                                 |
| \\      /  F ield         | OpenFOAM: The Open Source CFD Toolbox           |
|  \\    /   O peration     | Version:  v1912                                 |
|   \\  /    A nd           | Website:  www.openfoam.com                      |
|    \\/     M anipulation  |                                                 |
\*---------------------------------------------------------------------------*/
FoamFile
{
    version     2.0;
    format      ascii;
    class       volScalarField;
    location    "0.2";
    object      alphat.gas;
}
// * * * * * * * * * * * * * * * * * * * * * * * * * * * * * * * * * * * * * //

dimensions      [1 -1 -1 0 0 0 0];


internalField   nonuniform List<scalar> 
4800
(
1.988369605e-08
3.614794921e-08
4.742313459e-08
5.660788293e-08
6.456079481e-08
7.167660933e-08
7.81760096e-08
8.419731377e-08
8.983409574e-08
9.515325666e-08
1.002047022e-07
1.050269528e-07
1.096506211e-07
1.141006672e-07
1.183979485e-07
1.225603219e-07
1.266034755e-07
1.305415857e-07
1.343878815e-07
1.381551653e-07
1.418563419e-07
1.45505009e-07
1.491161695e-07
1.527071566e-07
1.562989018e-07
1.599177326e-07
1.635980435e-07
1.673863733e-07
1.713478344e-07
1.755766114e-07
1.80213738e-07
1.854784877e-07
1.917265757e-07
1.99564364e-07
2.100893685e-07
2.253885439e-07
2.511714215e-07
2.841663687e-07
3.38029297e-07
8.680753281e-07
3.405606678e-08
6.281429745e-08
8.282297875e-08
9.913466291e-08
1.132603034e-07
1.258969743e-07
1.374350198e-07
1.481192104e-07
1.58115038e-07
1.675406058e-07
1.764837039e-07
1.850117102e-07
1.93177682e-07
2.010243e-07
2.085865147e-07
2.158933914e-07
2.229694268e-07
2.298355181e-07
2.365096889e-07
2.43007648e-07
2.493432306e-07
2.555287559e-07
2.615753307e-07
2.674931245e-07
2.732916297e-07
2.789799572e-07
2.845671886e-07
2.900628703e-07
2.954777787e-07
3.00825207e-07
3.061233144e-07
3.113997007e-07
3.167009786e-07
3.221143432e-07
3.278226529e-07
3.341277056e-07
3.463733797e-07
2.487781899e-07
9.147243001e-07
2.717628716e-06
3.31173005e-08
6.102744928e-08
8.044346013e-08
9.627260482e-08
1.099812182e-07
1.222455633e-07
1.334442449e-07
1.438146279e-07
1.53517168e-07
1.626663507e-07
1.713472577e-07
1.796251664e-07
1.875514597e-07
1.951674461e-07
2.025069279e-07
2.095979833e-07
2.164642422e-07
2.231258183e-07
2.296000071e-07
2.359018188e-07
2.420443937e-07
2.480393329e-07
2.538969713e-07
2.596266073e-07
2.652367189e-07
2.707351741e-07
2.761294782e-07
2.814270986e-07
2.866359649e-07
2.91765319e-07
2.968272883e-07
3.018400125e-07
3.06834229e-07
3.118679968e-07
3.170631368e-07
3.22586657e-07
3.334702776e-07
2.427115091e-07
7.04152717e-07
3.294902704e-06
3.316457734e-08
6.111687977e-08
8.056210404e-08
9.641491932e-08
1.101439152e-07
1.224264113e-07
1.336416087e-07
1.44027249e-07
1.537440454e-07
1.629066687e-07
1.716003403e-07
1.798904463e-07
1.878284582e-07
1.954557579e-07
2.0280621e-07
2.099079489e-07
2.16784655e-07
2.234564902e-07
2.299407977e-07
2.36252636e-07
2.424051967e-07
2.484101371e-07
2.542778544e-07
2.600177203e-07
2.656382969e-07
2.71147553e-07
2.765531107e-07
2.818625691e-07
2.870839866e-07
2.922266766e-07
2.973026317e-07
3.023292252e-07
3.073346091e-07
3.123689865e-07
3.175295622e-07
3.229702061e-07
3.320995318e-07
2.094548838e-07
1.172939586e-06
3.592832818e-06
3.31559498e-08
6.110094026e-08
8.054105109e-08
9.63896952e-08
1.101150641e-07
1.223942958e-07
1.336064883e-07
1.439893177e-07
1.537034512e-07
1.628635263e-07
1.715547381e-07
1.798424517e-07
1.877781202e-07
1.954031094e-07
2.02751269e-07
2.098507186e-07
2.167251238e-07
2.233946303e-07
2.298765636e-07
2.361859615e-07
2.423359908e-07
2.483382777e-07
2.542031791e-07
2.599400132e-07
2.655572674e-07
2.71062803e-07
2.764640809e-07
2.817684472e-07
2.869835429e-07
2.921179572e-07
2.97182349e-07
3.021914841e-07
3.071680841e-07
3.121503235e-07
3.172067878e-07
3.224607267e-07
3.289163593e-07
2.621184445e-07
1.546564285e-06
3.72177683e-06
3.315071286e-08
6.109140223e-08
8.052848847e-08
9.637466108e-08
1.100978722e-07
1.223751538e-07
1.335855431e-07
1.439666775e-07
1.536791972e-07
1.628377196e-07
1.715274239e-07
1.798136622e-07
1.877478761e-07
1.953714214e-07
2.027181377e-07
2.098161348e-07
2.16689068e-07
2.23357072e-07
2.298374594e-07
2.361452529e-07
2.422936007e-07
2.482941051e-07
2.541570915e-07
2.59891835e-07
2.655067616e-07
2.710096419e-07
2.764077977e-07
2.817083521e-07
2.869185732e-07
2.920463974e-07
2.971012854e-07
3.020956971e-07
3.070477107e-07
3.119857439e-07
3.169571202e-07
3.220395401e-07
3.276414077e-07
3.237454758e-07
1.019918918e-06
3.774188694e-06
3.314529155e-08
6.108151651e-08
8.051545956e-08
9.635906585e-08
1.100800375e-07
1.223552961e-07
1.335638161e-07
1.439431947e-07
1.536540441e-07
1.628109607e-07
1.714991079e-07
1.797838239e-07
1.877165391e-07
1.953385986e-07
2.026838323e-07
2.0978034e-07
2.166517671e-07
2.233182372e-07
2.297970502e-07
2.361032143e-07
2.422498593e-07
2.482485643e-07
2.541096242e-07
2.598422717e-07
2.654548727e-07
2.709551093e-07
2.763501673e-07
2.816469541e-07
2.868523807e-07
2.919737696e-07
2.970194848e-07
3.019999545e-07
3.069293616e-07
3.118284427e-07
3.167290276e-07
3.216782809e-07
3.270148742e-07
3.159820021e-07
1.07452954e-06
3.808788346e-06
3.313990205e-08
6.107169066e-08
8.050250529e-08
9.634355897e-08
1.100623033e-07
1.223355504e-07
1.335422123e-07
1.439198462e-07
1.536290367e-07
1.627843596e-07
1.714709621e-07
1.797541695e-07
1.876854007e-07
1.953059907e-07
2.026497599e-07
2.097447988e-07
2.166147431e-07
2.23279706e-07
2.297569757e-07
2.360615466e-07
2.422065315e-07
2.482034883e-07
2.540626829e-07
2.597933089e-07
2.654036766e-07
2.709013855e-07
2.762934964e-07
2.815867189e-07
2.867876417e-07
2.919030444e-07
2.969403493e-07
3.019083038e-07
3.068180248e-07
3.116845616e-07
3.165290991e-07
3.213801122e-07
3.264733812e-07
3.154149868e-07
1.165424213e-06
3.835916668e-06
3.313453361e-08
6.106190413e-08
8.048959861e-08
9.632810805e-08
1.100446328e-07
1.223158758e-07
1.335206873e-07
1.438965845e-07
1.536041246e-07
1.62757863e-07
1.714429312e-07
1.797246413e-07
1.876544014e-07
1.952735367e-07
2.026158583e-07
2.097094479e-07
2.16577932e-07
2.232414144e-07
2.297171722e-07
2.360201874e-07
2.421635574e-07
2.481588202e-07
2.540162161e-07
2.597449032e-07
2.653531414e-07
2.708484564e-07
2.762377974e-07
2.815276996e-07
2.867244727e-07
2.918344368e-07
2.968642407e-07
3.018213053e-07
3.067144423e-07
3.115546753e-07
3.163561927e-07
3.211364648e-07
3.260436067e-07
3.17297348e-07
1.242947175e-06
3.85167939e-06
3.312918904e-08
6.105216185e-08
8.047674628e-08
9.631272135e-08
1.100270355e-07
1.222962834e-07
1.334992533e-07
1.438734231e-07
1.535793227e-07
1.627314873e-07
1.714150328e-07
1.796952588e-07
1.876235625e-07
1.952412595e-07
2.025821525e-07
2.096743146e-07
2.16541364e-07
2.232033955e-07
2.296776766e-07
2.359791776e-07
2.421209824e-07
2.481146118e-07
2.53970283e-07
2.59697123e-07
2.653033476e-07
2.707964186e-07
2.761831887e-07
2.814700454e-07
2.866630652e-07
2.917681941e-07
2.967914706e-07
3.017393095e-07
3.066188564e-07
3.114383925e-07
3.162076742e-07
3.209379531e-07
3.257086472e-07
3.201696024e-07
1.305561738e-06
3.857253324e-06
3.312387022e-08
6.104246706e-08
8.046395284e-08
9.629740444e-08
1.10009518e-07
1.222767805e-07
1.334779187e-07
1.438503714e-07
1.535546413e-07
1.62705244e-07
1.713872796e-07
1.796660357e-07
1.875928989e-07
1.952091758e-07
2.025486607e-07
2.09639419e-07
2.165050611e-07
2.231656737e-07
2.296385155e-07
2.35938547e-07
2.4207884e-07
2.480709003e-07
2.539249256e-07
2.596500162e-07
2.652543506e-07
2.707453365e-07
2.761297464e-07
2.81413846e-07
2.866035244e-07
2.917044333e-07
2.967221466e-07
3.016623424e-07
3.065310037e-07
3.113346062e-07
3.160801919e-07
3.207756615e-07
3.254434102e-07
3.231396182e-07
1.354731018e-06
3.864375817e-06
3.311857901e-08
6.10328229e-08
8.045122271e-08
9.628216274e-08
1.099920867e-07
1.222573745e-07
1.334566918e-07
1.438274385e-07
1.535300906e-07
1.626791439e-07
1.713596837e-07
1.796369852e-07
1.875624251e-07
1.951773012e-07
2.025153999e-07
2.096047796e-07
2.164690432e-07
2.231282705e-07
2.295997126e-07
2.358983211e-07
2.420371578e-07
2.480277159e-07
2.538801767e-07
2.596036184e-07
2.652061889e-07
2.706952516e-07
2.760775143e-07
2.81359146e-07
2.865458892e-07
2.916431722e-07
2.966562267e-07
3.015902089e-07
3.064503169e-07
3.112418758e-07
3.159703231e-07
3.206419245e-07
3.252234287e-07
3.257309125e-07
1.394520967e-06
3.879429211e-06
3.311331714e-08
6.102323228e-08
8.043856008e-08
9.62670014e-08
1.099747476e-07
1.222380722e-07
1.334355803e-07
1.43804633e-07
1.5350568e-07
1.626531976e-07
1.713322563e-07
1.796081196e-07
1.875321542e-07
1.951456498e-07
2.024823855e-07
2.095704126e-07
2.16433328e-07
2.230912049e-07
2.295612877e-07
2.358585209e-07
2.419959579e-07
2.479850814e-07
2.538360597e-07
2.595579532e-07
2.651588852e-07
2.706461844e-07
2.760265078e-07
2.8130595e-07
2.86490143e-07
2.915843505e-07
2.965935603e-07
3.015225711e-07
3.063760676e-07
3.111586657e-07
3.158748897e-07
3.205303358e-07
3.250276351e-07
3.278036318e-07
1.426727455e-06
3.887454266e-06
3.310808629e-08
6.101369793e-08
8.042596888e-08
9.625192524e-08
1.099575065e-07
1.222188802e-07
1.334145914e-07
1.43781963e-07
1.534814182e-07
1.626274146e-07
1.713050078e-07
1.795794499e-07
1.875020983e-07
1.951142346e-07
2.024496309e-07
2.095363325e-07
2.163979304e-07
2.230544923e-07
2.295232569e-07
2.358191629e-07
2.419552566e-07
2.479430127e-07
2.537925892e-07
2.595130328e-07
2.651124478e-07
2.705981364e-07
2.759767175e-07
2.812542301e-07
2.864362257e-07
2.915278511e-07
2.965339258e-07
3.014590115e-07
3.063074687e-07
3.110834913e-07
3.157911081e-07
3.204357409e-07
3.248395087e-07
3.292907394e-07
1.45506153e-06
3.897547354e-06
3.310288802e-08
6.100422235e-08
8.041345276e-08
9.623693876e-08
1.099403684e-07
1.221998044e-07
1.333937318e-07
1.437594357e-07
1.534573135e-07
1.626018036e-07
1.712779477e-07
1.795509864e-07
1.874722681e-07
1.950830668e-07
2.024171481e-07
2.095025516e-07
2.163628632e-07
2.230181456e-07
2.29485633e-07
2.357802591e-07
2.41915065e-07
2.479015191e-07
2.537497717e-07
2.594688593e-07
2.650668724e-07
2.705510935e-07
2.75928114e-07
2.812039332e-07
2.86384046e-07
2.914735189e-07
2.964770599e-07
3.013990797e-07
3.062437415e-07
3.110149985e-07
3.157166304e-07
3.203541004e-07
3.246463503e-07
3.302124292e-07
1.485150868e-06
3.903992971e-06
3.309772378e-08
6.099480782e-08
8.040101512e-08
9.622204613e-08
1.099233384e-07
1.221808504e-07
1.333730077e-07
1.437370581e-07
1.534333731e-07
1.625763727e-07
1.712510845e-07
1.795227381e-07
1.874426731e-07
1.950521563e-07
2.023849473e-07
2.094690802e-07
2.163281365e-07
2.229821747e-07
2.294484252e-07
2.357418177e-07
2.418753894e-07
2.478606042e-07
2.537076068e-07
2.594254266e-07
2.650221442e-07
2.705050289e-07
2.758806527e-07
2.81154988e-07
2.863334913e-07
2.91421177e-07
2.964226822e-07
3.013423253e-07
3.061841558e-07
3.10951997e-07
3.156495239e-07
3.202822955e-07
3.24439068e-07
3.30481271e-07
1.509261564e-06
3.911013454e-06
3.309259495e-08
6.098545642e-08
8.038865908e-08
9.620725116e-08
1.09906421e-07
1.221620232e-07
1.333524249e-07
1.437148364e-07
1.534096039e-07
1.625511291e-07
1.712244258e-07
1.794947129e-07
1.874133217e-07
1.950215117e-07
2.02353037e-07
2.094359268e-07
2.162937586e-07
2.229465872e-07
2.294116398e-07
2.357038433e-07
2.41836232e-07
2.478202665e-07
2.53666088e-07
2.593827212e-07
2.649782405e-07
2.704599062e-07
2.75834278e-07
2.811073108e-07
2.862844373e-07
2.913706392e-07
2.963705112e-07
3.012883193e-07
3.061280516e-07
3.108934671e-07
3.155882217e-07
3.202179418e-07
3.242103676e-07
3.301724394e-07
1.52882485e-06
3.916602975e-06
3.308750282e-08
6.097616992e-08
8.037638748e-08
9.619255733e-08
1.098896201e-07
1.221433275e-07
1.333319884e-07
1.436927761e-07
1.533860118e-07
1.625260791e-07
1.711979783e-07
1.79466918e-07
1.873842209e-07
1.949911402e-07
2.023214242e-07
2.094030981e-07
2.162597354e-07
2.229113879e-07
2.293752803e-07
2.356663372e-07
2.417975909e-07
2.477805002e-07
2.53625204e-07
2.593407243e-07
2.649351319e-07
2.70415682e-07
2.75788927e-07
2.810608115e-07
2.862367543e-07
2.913217188e-07
2.963202766e-07
3.012366663e-07
3.06074847e-07
3.108385503e-07
3.15531467e-07
3.201592159e-07
3.239541233e-07
3.294325949e-07
1.545010374e-06
3.921773957e-06
3.308244859e-08
6.096694992e-08
8.036420286e-08
9.617796775e-08
1.098729394e-07
1.221247674e-07
1.333117027e-07
1.436708822e-07
1.533626021e-07
1.625012284e-07
1.711717479e-07
1.794393591e-07
1.873553767e-07
1.949610475e-07
2.022901147e-07
2.093705992e-07
2.162260711e-07
2.228765799e-07
2.293393478e-07
2.356292981e-07
2.417594617e-07
2.477412963e-07
2.535849397e-07
2.592994128e-07
2.64892785e-07
2.703723086e-07
2.757445328e-07
2.810153972e-07
2.861903134e-07
2.912742361e-07
2.962717261e-07
3.011870109e-07
3.060240385e-07
3.107865334e-07
3.154782589e-07
3.201047247e-07
3.236655931e-07
3.287948749e-07
1.558578223e-06
3.926129502e-06
3.307743339e-08
6.095779775e-08
8.03521075e-08
9.616348519e-08
1.098563821e-07
1.221063466e-07
1.332915719e-07
1.43649159e-07
1.533393795e-07
1.624765817e-07
1.711457396e-07
1.794120415e-07
1.873267942e-07
1.949312385e-07
2.022591126e-07
2.093384335e-07
2.161927684e-07
2.228421641e-07
2.293038416e-07
2.355927225e-07
2.417218371e-07
2.477026428e-07
2.535452772e-07
2.59258761e-07
2.648511633e-07
2.703297362e-07
2.757010277e-07
2.809709757e-07
2.861449898e-07
2.91228022e-07
2.962246301e-07
3.011390392e-07
3.059751968e-07
3.107368296e-07
3.154278054e-07
3.200534153e-07
3.233552254e-07
3.283476966e-07
1.570041705e-06
3.929824438e-06
3.307245832e-08
6.094871442e-08
8.034010341e-08
9.614911207e-08
1.098399511e-07
1.220880681e-07
1.332715995e-07
1.436276103e-07
1.533163479e-07
1.624521433e-07
1.711199575e-07
1.79384969e-07
1.872984772e-07
1.949017167e-07
2.02228421e-07
2.093066034e-07
2.161598282e-07
2.228081403e-07
2.292687589e-07
2.355566049e-07
2.416847082e-07
2.476645263e-07
2.535061969e-07
2.592187414e-07
2.648102297e-07
2.702879145e-07
2.756583445e-07
2.809274585e-07
2.861006665e-07
2.911829215e-07
2.96178783e-07
3.010924785e-07
3.059279599e-07
3.106889596e-07
3.153794829e-07
3.200044598e-07
3.230684646e-07
3.280048994e-07
1.579830777e-06
3.933194857e-06
3.30675244e-08
6.093970075e-08
8.032819229e-08
9.613485045e-08
1.098236488e-07
1.220699348e-07
1.332517883e-07
1.436062391e-07
1.532935105e-07
1.624279163e-07
1.710944049e-07
1.793581451e-07
1.872704289e-07
1.948724848e-07
2.021980419e-07
2.0927511e-07
2.161272506e-07
2.227745065e-07
2.292340959e-07
2.355209389e-07
2.41648065e-07
2.476269319e-07
2.534676782e-07
2.591793262e-07
2.647699468e-07
2.702467944e-07
2.756164193e-07
2.808847622e-07
2.860572353e-07
2.911387947e-07
2.961340036e-07
3.010470945e-07
3.05882025e-07
3.106425345e-07
3.153328016e-07
3.199571217e-07
3.228070783e-07
3.277338558e-07
1.588266047e-06
3.935667062e-06
3.306263272e-08
6.093075717e-08
8.031637562e-08
9.612070205e-08
1.098074771e-07
1.220519487e-07
1.332321409e-07
1.435850482e-07
1.532708701e-07
1.624039036e-07
1.710690846e-07
1.793315723e-07
1.872426512e-07
1.948435444e-07
2.021679764e-07
2.092439534e-07
2.160950344e-07
2.227412603e-07
2.29199848e-07
2.354857169e-07
2.416118964e-07
2.475898445e-07
2.534297006e-07
2.591404878e-07
2.647302788e-07
2.702063295e-07
2.755751921e-07
2.808428101e-07
2.860145986e-07
2.910955174e-07
2.960901345e-07
3.01002688e-07
3.058371413e-07
3.105972404e-07
3.152873492e-07
3.199109421e-07
3.225675656e-07
3.275142399e-07
1.595565384e-06
3.937551848e-06
3.305778437e-08
6.092188383e-08
8.030465458e-08
9.610666825e-08
1.097914376e-07
1.220341118e-07
1.332126591e-07
1.435640394e-07
1.532484287e-07
1.623801072e-07
1.710439984e-07
1.793052522e-07
1.872151458e-07
1.948148967e-07
2.021382249e-07
2.092131332e-07
2.16063178e-07
2.227083983e-07
2.291660098e-07
2.354509311e-07
2.415761915e-07
2.475532491e-07
2.533922439e-07
2.591022002e-07
2.646911917e-07
2.701664762e-07
2.75534608e-07
2.80801533e-07
2.859726694e-07
2.91052981e-07
2.960470405e-07
3.009590912e-07
3.057931022e-07
3.105528244e-07
3.152428056e-07
3.198656025e-07
3.223467554e-07
3.273316379e-07
1.601914369e-06
3.939184904e-06
3.305298054e-08
6.091308052e-08
8.029303016e-08
9.609275012e-08
1.097755315e-07
1.220164252e-07
1.331933444e-07
1.435432143e-07
1.532261878e-07
1.623565285e-07
1.710191477e-07
1.792791859e-07
1.871879134e-07
1.947865418e-07
2.021087869e-07
2.09182648e-07
2.160316789e-07
2.226759168e-07
2.291325756e-07
2.354165735e-07
2.415409393e-07
2.47517131e-07
2.533552891e-07
2.590644387e-07
2.646526544e-07
2.701271954e-07
2.754946177e-07
2.807608695e-07
2.859313719e-07
2.91011092e-07
2.960046069e-07
3.009161646e-07
3.057497385e-07
3.10509084e-07
3.151989298e-07
3.198208503e-07
3.221418033e-07
3.271758862e-07
1.607471895e-06
3.940601123e-06
3.304822029e-08
6.090434859e-08
8.028150269e-08
9.607894829e-08
1.097597597e-07
1.2199889e-07
1.331741977e-07
1.435225739e-07
1.532041484e-07
1.623331684e-07
1.709945331e-07
1.792533741e-07
1.871609542e-07
1.947584796e-07
2.020796616e-07
2.091524963e-07
2.160005345e-07
2.226438115e-07
2.290995398e-07
2.353826364e-07
2.415061295e-07
2.474814768e-07
2.533188189e-07
2.590271812e-07
2.646146388e-07
2.70088452e-07
2.754551779e-07
2.807207663e-07
2.858906407e-07
2.90969771e-07
2.959627376e-07
3.008737927e-07
3.05706913e-07
3.104658578e-07
3.151555342e-07
3.197764908e-07
3.219501484e-07
3.270396495e-07
1.61237187e-06
3.941819116e-06
3.304350135e-08
6.089569018e-08
8.027007201e-08
9.606526303e-08
1.097441225e-07
1.219815064e-07
1.331552194e-07
1.435021184e-07
1.531823107e-07
1.623100271e-07
1.709701549e-07
1.792278164e-07
1.871342676e-07
1.94730709e-07
2.020508475e-07
2.091226757e-07
2.159697417e-07
2.226120784e-07
2.290668967e-07
2.353491123e-07
2.414717524e-07
2.474462742e-07
2.532828177e-07
2.589904081e-07
2.645771207e-07
2.70050216e-07
2.754162516e-07
2.806811784e-07
2.858504212e-07
2.909289519e-07
2.959213538e-07
3.008318821e-07
3.056645163e-07
3.104230194e-07
3.151124743e-07
3.197323729e-07
3.217694661e-07
3.269175891e-07
1.616728372e-06
3.942855857e-06
3.303882369e-08
6.088710526e-08
8.025873813e-08
9.605169437e-08
1.0972862e-07
1.219642747e-07
1.331364095e-07
1.43481848e-07
1.531606747e-07
1.622871044e-07
1.709460125e-07
1.792025124e-07
1.871078528e-07
1.947032288e-07
2.020223429e-07
2.09093184e-07
2.159392973e-07
2.225807133e-07
2.29034641e-07
2.353159944e-07
2.414377995e-07
2.474115123e-07
2.532472719e-07
2.589541029e-07
2.645400797e-07
2.700124624e-07
2.753778085e-07
2.806420689e-07
2.858106689e-07
2.908885818e-07
2.958803925e-07
3.007903588e-07
3.056224624e-07
3.103804701e-07
3.150696388e-07
3.19688379e-07
3.21597621e-07
3.268058662e-07
1.620641116e-06
3.943725723e-06
3.303418718e-08
6.087859359e-08
8.024750081e-08
9.603824205e-08
1.097132518e-07
1.219471944e-07
1.331177677e-07
1.434617622e-07
1.531392398e-07
1.622643996e-07
1.709221052e-07
1.791774608e-07
1.870817084e-07
1.946760374e-07
2.019941457e-07
2.090640186e-07
2.159091981e-07
2.225497123e-07
2.290027679e-07
2.352832769e-07
2.414042636e-07
2.473771824e-07
2.53212171e-07
2.589182524e-07
2.645034997e-07
2.699751717e-07
2.753398248e-07
2.806034091e-07
2.857713496e-07
2.908486198e-07
2.958398054e-07
3.007491661e-07
3.055806855e-07
3.103381347e-07
3.150269438e-07
3.19644418e-07
3.214326194e-07
3.267017172e-07
1.624197853e-06
3.944440082e-06
3.30295916e-08
6.087015474e-08
8.023635957e-08
9.60249055e-08
1.096980173e-07
1.219302648e-07
1.330992932e-07
1.4344186e-07
1.53118005e-07
1.622419116e-07
1.708984315e-07
1.791526602e-07
1.870558327e-07
1.946491327e-07
2.019662537e-07
2.090351769e-07
2.158794413e-07
2.22519072e-07
2.289712733e-07
2.35250955e-07
2.41371139e-07
2.473432778e-07
2.531775067e-07
2.588828469e-07
2.644673691e-07
2.6993833e-07
2.753022838e-07
2.805651789e-07
2.857324388e-07
2.908090364e-07
2.957995574e-07
3.007082626e-07
3.055391377e-07
3.102959579e-07
3.149843284e-07
3.196004196e-07
3.212725605e-07
3.266031259e-07
1.627477706e-06
3.945007135e-06
3.302503663e-08
6.086178809e-08
8.022531366e-08
9.601168386e-08
1.096829156e-07
1.219134848e-07
1.330809846e-07
1.4342214e-07
1.530969687e-07
1.622196385e-07
1.708749897e-07
1.791281087e-07
1.870302236e-07
1.946225126e-07
2.019386644e-07
2.090066562e-07
2.158500239e-07
2.224887893e-07
2.289401539e-07
2.352190248e-07
2.413384215e-07
2.473097937e-07
2.531432739e-07
2.588478803e-07
2.644316808e-07
2.699019288e-07
2.752651755e-07
2.805273661e-07
2.856939216e-07
2.907698133e-07
2.957596261e-07
3.006676214e-07
3.054977866e-07
3.102539022e-07
3.149417509e-07
3.195563317e-07
3.211155863e-07
3.265086262e-07
1.630555673e-06
3.94543178e-06
3.302052183e-08
6.085349282e-08
8.021436207e-08
9.599857593e-08
1.096679452e-07
1.218968528e-07
1.330628403e-07
1.434026004e-07
1.53076129e-07
1.621975785e-07
1.708517775e-07
1.79103804e-07
1.870048788e-07
1.945961745e-07
2.019113751e-07
2.08978454e-07
2.158209431e-07
2.224588614e-07
2.289094069e-07
2.35187484e-07
2.413061087e-07
2.472767277e-07
2.531094701e-07
2.588133504e-07
2.643964324e-07
2.698659656e-07
2.752284965e-07
2.804899666e-07
2.856557929e-07
2.907309434e-07
2.957200016e-07
3.006272291e-07
3.054566151e-07
3.102119459e-07
3.148991878e-07
3.195121177e-07
3.209598269e-07
3.264175125e-07
1.633510848e-06
3.945715264e-06
3.301604669e-08
6.084526796e-08
8.020350355e-08
9.598558023e-08
1.096531044e-07
1.21880367e-07
1.330448583e-07
1.433832389e-07
1.530554835e-07
1.621757288e-07
1.708287923e-07
1.790797432e-07
1.869797952e-07
1.945701155e-07
2.018843832e-07
2.089505675e-07
2.157921967e-07
2.224292861e-07
2.288790306e-07
2.351563309e-07
2.412741997e-07
2.472440797e-07
2.530760961e-07
2.587792586e-07
2.643616264e-07
2.698304435e-07
2.751922511e-07
2.80452985e-07
2.85618057e-07
2.906924307e-07
2.956806868e-07
3.005870862e-07
3.054156201e-07
3.101700827e-07
3.148566317e-07
3.194677552e-07
3.208033311e-07
3.263303298e-07
1.636441268e-06
3.94585847e-06
3.301161055e-08
6.083711231e-08
8.01927366e-08
9.597269498e-08
1.096383912e-07
1.21864025e-07
1.33027036e-07
1.433640529e-07
1.530350292e-07
1.621540866e-07
1.70806031e-07
1.790559231e-07
1.869549699e-07
1.945443326e-07
2.018576857e-07
2.08922994e-07
2.157637821e-07
2.224000616e-07
2.288490237e-07
2.351255654e-07
2.412426953e-07
2.472118519e-07
2.530431554e-07
2.587456104e-07
2.6432727e-07
2.697953719e-07
2.751564505e-07
2.804164344e-07
2.855807285e-07
2.906542905e-07
2.956416969e-07
3.005472068e-07
3.053748136e-07
3.101283213e-07
3.148140913e-07
3.194232347e-07
3.206439861e-07
3.262498541e-07
1.639489943e-06
3.945744029e-06
3.300721269e-08
6.082902452e-08
8.018205948e-08
9.595991809e-08
1.096238033e-07
1.218478243e-07
1.330093705e-07
1.433450393e-07
1.53014763e-07
1.621326483e-07
1.707834901e-07
1.790323404e-07
1.869303993e-07
1.945188223e-07
2.018312793e-07
2.088957308e-07
2.157356973e-07
2.223711865e-07
2.288193859e-07
2.350951883e-07
2.412115979e-07
2.471800484e-07
2.530106545e-07
2.587124148e-07
2.642933754e-07
2.697607662e-07
2.751211133e-07
2.803803367e-07
2.855438325e-07
2.906165501e-07
2.956030601e-07
3.005076193e-07
3.053342228e-07
3.100866863e-07
3.147715917e-07
3.193785569e-07
3.204794423e-07
3.261768968e-07
1.642683593e-06
3.946333316e-06
3.300285227e-08
6.082100303e-08
8.017147019e-08
9.594724718e-08
1.096093378e-07
1.218317618e-07
1.329918585e-07
1.433261945e-07
1.52994681e-07
1.621114101e-07
1.707611656e-07
1.790089908e-07
1.869060793e-07
1.94493581e-07
2.018051608e-07
2.08868775e-07
2.157079399e-07
2.223426595e-07
2.287901171e-07
2.350652011e-07
2.411809112e-07
2.471486755e-07
2.529786029e-07
2.586796847e-07
2.642599594e-07
2.697266478e-07
2.750862661e-07
2.803447234e-07
2.855074049e-07
2.905792496e-07
2.955648197e-07
3.004683678e-07
3.05293891e-07
3.100452188e-07
3.147291747e-07
3.193337313e-07
3.203070539e-07
3.261111778e-07
1.6460774e-06
3.947982156e-06
3.299852835e-08
6.081304613e-08
8.016096649e-08
9.593467957e-08
1.095949918e-07
1.21815834e-07
1.329744963e-07
1.433075144e-07
1.529747791e-07
1.620903675e-07
1.707390528e-07
1.789858699e-07
1.868820057e-07
1.944686044e-07
2.017793262e-07
2.088421232e-07
2.156805076e-07
2.223144794e-07
2.287612176e-07
2.350356063e-07
2.411506401e-07
2.471177413e-07
2.529470121e-07
2.586474365e-07
2.642270437e-07
2.696930444e-07
2.750519428e-07
2.803096354e-07
2.854714937e-07
2.905424431e-07
2.955270346e-07
3.004295144e-07
3.052538806e-07
3.100039785e-07
3.146869e-07
3.192887747e-07
3.201241375e-07
3.260623388e-07
1.649761258e-06
3.946257061e-06
3.299423988e-08
6.080515188e-08
8.015054592e-08
9.592221229e-08
1.095807618e-07
1.218000372e-07
1.329572797e-07
1.432889947e-07
1.529550524e-07
1.620695157e-07
1.707171469e-07
1.789629726e-07
1.868581733e-07
1.944438877e-07
2.017537712e-07
2.088157718e-07
2.156533978e-07
2.222866449e-07
2.28732688e-07
2.350064066e-07
2.411207901e-07
2.47087255e-07
2.529158963e-07
2.586156895e-07
2.641946542e-07
2.696599894e-07
2.750181857e-07
2.80275124e-07
2.854361594e-07
2.905062005e-07
2.954897826e-07
3.003911425e-07
3.052142767e-07
3.09963048e-07
3.146448493e-07
3.192437112e-07
3.199274434e-07
3.260410468e-07
1.654209233e-06
3.947966026e-06
3.298998572e-08
6.07973182e-08
8.014020573e-08
9.590984204e-08
1.09566644e-07
1.217843671e-07
1.329402041e-07
1.432706303e-07
1.529354958e-07
1.620488491e-07
1.706954421e-07
1.789402932e-07
1.868345765e-07
1.944194254e-07
2.017284909e-07
2.087897167e-07
2.156266071e-07
2.222591541e-07
2.287045284e-07
2.349776049e-07
2.410913677e-07
2.470572272e-07
2.528852711e-07
2.585844662e-07
2.641628212e-07
2.696275224e-07
2.749850449e-07
2.802412515e-07
2.85401477e-07
2.904706094e-07
2.954531635e-07
3.003533607e-07
3.051751925e-07
3.099225387e-07
3.146031318e-07
3.191985692e-07
3.197131121e-07
3.260475261e-07
1.658709834e-06
3.943394305e-06
3.298576465e-08
6.07895428e-08
8.012994293e-08
9.589756524e-08
1.095526343e-07
1.217688192e-07
1.329232644e-07
1.432524158e-07
1.529161034e-07
1.620283616e-07
1.706739321e-07
1.789178253e-07
1.86811209e-07
1.943952116e-07
2.017034796e-07
2.087639528e-07
2.156001318e-07
2.222320048e-07
2.286767387e-07
2.349492037e-07
2.410623791e-07
2.47027669e-07
2.528551538e-07
2.585537913e-07
2.641315789e-07
2.695956889e-07
2.749525791e-07
2.802080917e-07
2.853675374e-07
2.904357783e-07
2.954173029e-07
3.003163093e-07
3.051367772e-07
3.098825999e-07
3.145618944e-07
3.19153392e-07
3.194795233e-07
3.261166861e-07
1.664185217e-06
3.947263517e-06
3.298157531e-08
6.07818232e-08
8.011975431e-08
9.5885378e-08
1.095387283e-07
1.217533882e-07
1.329064551e-07
1.432343451e-07
1.528968687e-07
1.620080465e-07
1.706526099e-07
1.788955618e-07
1.867880636e-07
1.943712392e-07
2.016787307e-07
2.087384742e-07
2.15573967e-07
2.222051938e-07
2.286493178e-07
2.349212052e-07
2.410338303e-07
2.469985917e-07
2.528255625e-07
2.585236915e-07
2.641009646e-07
2.695645394e-07
2.749208551e-07
2.801757307e-07
2.85334449e-07
2.904018399e-07
2.953823579e-07
3.002801684e-07
3.05099227e-07
3.098434335e-07
3.145213395e-07
3.191082676e-07
3.192208607e-07
3.261897201e-07
1.669388609e-06
3.938766138e-06
3.297741626e-08
6.077415676e-08
8.010963639e-08
9.587327613e-08
1.09524921e-07
1.217380689e-07
1.328897702e-07
1.432164118e-07
1.52877785e-07
1.619878965e-07
1.70631468e-07
1.788734948e-07
1.867651326e-07
1.943475004e-07
2.016542367e-07
2.087132743e-07
2.155481071e-07
2.221787169e-07
2.286222638e-07
2.348936103e-07
2.410057266e-07
2.46970006e-07
2.527965153e-07
2.584941945e-07
2.640710184e-07
2.695341297e-07
2.748899481e-07
2.801442677e-07
2.853023394e-07
2.903689546e-07
2.953485239e-07
3.002451674e-07
3.050628011e-07
3.098053157e-07
3.144817479e-07
3.190633039e-07
3.189390221e-07
3.263694215e-07
1.675370961e-06
3.940057335e-06
3.297328597e-08
6.076654068e-08
8.009958547e-08
9.586125516e-08
1.095112073e-07
1.217228555e-07
1.328732033e-07
1.43198609e-07
1.528588446e-07
1.619679036e-07
1.706104979e-07
1.788516156e-07
1.867424069e-07
1.943239865e-07
2.016299891e-07
2.086883448e-07
2.155225448e-07
2.221525684e-07
2.285955731e-07
2.348664186e-07
2.409780717e-07
2.469419216e-07
2.527680296e-07
2.584653282e-07
2.640417818e-07
2.695045191e-07
2.748599407e-07
2.801138144e-07
2.852713567e-07
2.90337314e-07
2.953160424e-07
3.002116003e-07
3.05027843e-07
3.097686285e-07
3.144435313e-07
3.190187741e-07
3.186258385e-07
3.265448692e-07
1.681053346e-06
3.933428056e-06
3.296918282e-08
6.0758972e-08
8.008959768e-08
9.584931037e-08
1.094975817e-07
1.217077416e-07
1.328567475e-07
1.43180929e-07
1.528400395e-07
1.619480593e-07
1.705896907e-07
1.78829915e-07
1.86719877e-07
1.943006875e-07
2.016059782e-07
2.086636764e-07
2.154972716e-07
2.221267409e-07
2.285692402e-07
2.348396275e-07
2.409508673e-07
2.469143461e-07
2.527401209e-07
2.58437119e-07
2.640132962e-07
2.694757693e-07
2.748309214e-07
2.80084495e-07
2.852416705e-07
2.903071448e-07
2.952852092e-07
3.001798423e-07
3.049948099e-07
3.097339048e-07
3.144072816e-07
3.189750814e-07
3.182892621e-07
3.267955405e-07
1.686072837e-06
3.927260435e-06
3.296510511e-08
6.075144763e-08
8.007966893e-08
9.583743681e-08
1.094840386e-07
1.216927209e-07
1.328403955e-07
1.431633641e-07
1.528213611e-07
1.619283543e-07
1.705690365e-07
1.788083825e-07
1.866975322e-07
1.942775926e-07
2.015821928e-07
2.086392582e-07
2.154722769e-07
2.221012251e-07
2.285432576e-07
2.34813232e-07
2.409241122e-07
2.468872836e-07
2.527128017e-07
2.584095906e-07
2.639856013e-07
2.694479421e-07
2.748029828e-07
2.800564437e-07
2.852134713e-07
2.902787118e-07
2.95256384e-07
3.001503693e-07
3.049643116e-07
3.097018922e-07
3.14373902e-07
3.18932998e-07
3.179145474e-07
3.27011355e-07
1.690745102e-06
3.919440881e-06
3.29610511e-08
6.074396435e-08
8.006979495e-08
9.582562926e-08
1.094705716e-07
1.216777863e-07
1.328241397e-07
1.431459057e-07
1.528028004e-07
1.619087788e-07
1.705485249e-07
1.787870071e-07
1.866753607e-07
1.942546894e-07
2.015586203e-07
2.086150775e-07
2.154475484e-07
2.22076009e-07
2.285176146e-07
2.347872237e-07
2.408978013e-07
2.468607345e-07
2.526860796e-07
2.583827619e-07
2.639587323e-07
2.694210966e-07
2.747762178e-07
2.80029802e-07
2.851869688e-07
2.90252319e-07
2.952299987e-07
3.001237809e-07
3.049371569e-07