/*--------------------------------*- C++ -*----------------------------------*\
| =========                 |                                                 |
| \\      /  F ield         | OpenFOAM: The Open Source CFD Toolbox           |
|  \\    /   O peration     | Version:  v1912                                 |
|   \\  /    A nd           | Website:  www.openfoam.com                      |
|    \\/     M anipulation  |                                                 |
\*---------------------------------------------------------------------------*/
FoamFile
{
    version     2.0;
    format      ascii;
    class       volScalarField;
    location    "0.2";
    object      alpha.gas_0;
}
// * * * * * * * * * * * * * * * * * * * * * * * * * * * * * * * * * * * * * //

dimensions      [0 0 0 0 0 0 0];


internalField   nonuniform List<scalar> 
4800
(
5.122047413e-240
3.619676165e-235
1.79865729e-230
6.251958932e-226
1.635448992e-221
3.348591768e-217
5.565461651e-213
7.719681362e-209
9.107508244e-205
9.265245929e-201
8.274822552e-197
6.551593941e-193
4.635647986e-189
2.955708562e-185
1.709533093e-181
9.014643783e-178
4.368371733e-174
1.942035881e-170
7.907775068e-167
2.966115123e-163
1.008680315e-159
3.085410231e-156
8.230054118e-153
1.570704273e-149
5.433034524e-148
4.247932073e-145
3.099287201e-146
1.932891094e-160
2.654870753e-105
2.734760183e-107
2.735403146e-127
7.014209169e-78
1.428594448e-75
0
7.045206294e-61
3.718793962e-77
2.2397118e-49
7.15754428e-51
0
0.01412701677
4.151538373e-239
2.820835206e-234
1.361814028e-229
4.63566959e-225
1.183841769e-220
2.386466479e-216
3.936042908e-212
5.431896395e-208
6.422321657e-204
6.618347687e-200
6.009821361e-196
4.8719969e-192
3.566472284e-188
2.375604996e-184
1.451248049e-180
8.182730693e-177
4.276208263e-173
2.079442654e-169
9.455143601e-166
4.039141696e-162
1.628614098e-158
6.264113043e-155
2.340623724e-151
3.587116569e-149
3.588530306e-149
4.057380985e-139
1.638413838e-140
1.301877758e-160
1.451834261e-102
5.591426274e-102
0
3.280054347e-74
3.574493407e-74
1.554211095e-76
6.621055314e-58
0
1.92119944e-45
5.502713953e-63
0.0001965612886
0.0207884787
4.378966747e-237
3.142993656e-232
1.593076946e-227
5.695286369e-223
1.521168201e-218
3.177175194e-214
5.430049664e-210
7.692902989e-206
9.323226097e-202
9.751800169e-198
8.933499907e-194
7.257484682e-190
5.2880813e-186
3.478410464e-182
2.082167162e-178
1.141439667e-174
5.75272161e-171
2.674919474e-167
1.153621889e-163
4.639786342e-160
1.746629882e-156
6.225928044e-153
2.135654472e-149
1.926507433e-149
1.641099496e-146
1.666485372e-133
5.508076109e-135
7.964579087e-154
3.785530847e-121
2.604547977e-96
0
1.030495909e-72
5.378962715e-92
1.133579524e-56
8.904502229e-57
0
2.946184884e-43
4.590860557e-63
0.0005507983876
0.03064745886
6.630850043e-236
4.547742769e-231
2.202680537e-226
7.469098312e-222
1.899198278e-217
3.794730351e-213
6.132154651e-209
8.29881849e-205
9.517044406e-201
9.425356507e-197
8.1962265e-193
6.301529381e-189
4.327101783e-185
2.675225566e-181
1.498228249e-177
7.631769299e-174
3.542085859e-170
1.501620716e-166
5.760455503e-163
1.975436169e-159
5.900611662e-156
1.44363044e-152
1.967132845e-149
1.858463728e-149
3.641584216e-134
8.564981968e-130
2.704326409e-131
7.766674181e-135
1.514272424e-147
3.236240548e-91
7.177851045e-111
1.037029017e-72
1.529988826e-91
6.220745818e-54
8.901035592e-57
1.935823851e-46
2.015675245e-42
0
0.0009419685025
0.04136590578
5.795754383e-235
4.180467672e-230
2.141711122e-225
7.727345728e-221
2.090938451e-216
4.479128529e-212
7.812880228e-208
1.140686394e-203
1.418406619e-199
1.534006604e-195
1.45270323e-191
1.218676501e-187
9.139838238e-184
6.168665849e-180
3.763467851e-176
2.079753358e-172
1.040016406e-168
4.682657479e-165
1.878738578e-161
6.604462091e-158
1.939935586e-154
4.352198464e-151
2.806460068e-149
1.858444965e-149
1.215717645e-131
5.024700729e-128
2.401494269e-129
1.134578789e-131
4.963300889e-147
3.05924427e-88
2.462774852e-107
9.14709596e-73
0
9.476787378e-53
8.943266173e-57
1.64157849e-44
2.027779117e-42
7.934868498e-66
0.001196387208
0.0501751876
8.221825298e-233
5.914552335e-228
3.001787955e-223
1.065590066e-218
2.819330848e-214
5.872263352e-210
9.894792324e-206
1.388185161e-201
1.648858122e-197
1.694954144e-193
1.517874708e-189
1.198264401e-185
8.417449425e-182
5.298393862e-178
3.002435203e-174
1.534967348e-170
7.073799121e-167
2.924287212e-163
1.073299821e-159
3.438477971e-156
9.165265498e-153
1.855380654e-149
4.623675024e-151
9.341028324e-144
1.128524332e-131
1.849491381e-127
7.873479686e-125
2.069581524e-126
9.73029149e-146
7.120612276e-87
4.236846794e-106
3.384275435e-73
0
1.150641743e-52
8.901035592e-57
3.310576624e-44
1.861025789e-42
0
0.001327826136
0.05603528425
4.392646986e-234
3.121149913e-229
1.56876402e-224
5.528632293e-220
1.457737752e-215
3.036715569e-211
5.11418544e-207
7.214791062e-203
8.615463732e-199
8.943153185e-195
8.115782466e-191
6.515373459e-187
4.673726883e-183
3.019929294e-179
1.768377096e-175
9.423487757e-172
4.579408447e-168
2.02874464e-164
8.166039947e-161
2.979349981e-157
9.689620757e-154
2.787722011e-150
1.006162087e-151
8.493589497e-136
9.055720505e-150
3.928034277e-124
1.175037377e-121
2.590840937e-123
0
1.004330451e-85
0
2.871687646e-74
8.755262345e-94
1.150606805e-52
8.943266173e-57
2.761028758e-44
7.935309038e-43
0
0.001516477141
0.0597345251
2.518835103e-233
1.430546745e-228
5.89719093e-224
1.749572551e-219
3.972481986e-215
7.206058683e-211
1.078370816e-206
1.366107903e-202
1.48271151e-198
1.403390982e-194
1.164540881e-190
8.517035721e-187
5.525660771e-183
3.17103077e-179
1.6025157e-175
7.070589952e-172
2.68116002e-168
8.505975658e-165
2.157032769e-161
4.036218078e-158
4.841338138e-155
3.993344741e-152
3.992619566e-152
6.80221051e-136
0
2.715518936e-122
2.677820579e-120
6.123052249e-122
1.470853355e-141
1.046346834e-82
0
1.475509934e-72
7.556665015e-92
7.543872037e-53
8.98555366e-57
1.064879284e-44
8.996010902e-44
0
0.001700047792
0.06234604447
8.836825721e-231
4.945131181e-226
1.999927485e-221
5.801718159e-217
1.283966427e-212
2.259923206e-208
3.271061998e-204
3.991889754e-200
4.156499312e-196
3.756358543e-192
2.962653421e-188
2.049066534e-184
1.251130546e-180
6.721586705e-177
3.162798358e-173
1.291819794e-169
4.503942309e-166
1.301828222e-162
2.960935969e-159
4.781429396e-156
4.187112171e-153
3.872977341e-152
1.171439747e-149
1.120779801e-136
1.748250281e-151
1.018451473e-121
2.681122403e-120
8.693465989e-122
4.232838743e-142
2.036986951e-81
6.676221948e-83
1.58608909e-71
1.777022357e-92
1.750719878e-53
9.027897539e-57
1.141357621e-45
1.630932623e-45
0
0.001881871695
0.06455217939
2.362438167e-228
1.314219913e-223
5.247284631e-219
1.493123998e-214
3.220958975e-210
5.49173086e-206
7.654912524e-202
8.94575103e-198
8.871412584e-194
7.597188993e-190
5.650859445e-186
3.669027535e-182
2.094441119e-178
1.047901675e-174
4.575413892e-171
1.72823442e-167
5.554550187e-164
1.475489447e-160
3.074875792e-157
4.535167881e-154
3.599347816e-151
4.907598414e-152
7.327532252e-142
1.097256387e-138
5.699673388e-133
1.049910929e-121
2.748053941e-120
4.918473054e-119
3.423918093e-139
2.042864186e-81
5.808041943e-84
5.938742364e-72
6.63892688e-75
6.605081811e-55
9.024434016e-57
2.051708478e-47
2.917178234e-48
0
0.00206243389
0.06622375039
3.90992697e-226
2.162024882e-221
8.520516463e-217
2.37741044e-212
4.996934593e-208
8.249263841e-204
1.106810014e-199
1.238000099e-195
1.168750785e-191
9.480176893e-188
6.647608411e-184
4.050770742e-180
2.161421851e-176
1.007016335e-172
4.080134323e-169
1.425527661e-165
4.225269751e-162
1.03222903e-158
1.973410562e-155
2.664682723e-152
1.922828225e-149
3.100938701e-150
1.356936581e-140
1.304258494e-142
1.119086439e-125
0
2.07042379e-115
1.222592136e-114
0
1.857817033e-81
5.903798779e-84
3.015381991e-73
1.544602327e-63
4.856715167e-68
2.844421199e-52
4.645418835e-50
4.421806812e-52
0
0.00224201217
0.06688913455
3.029438768e-224
1.664708635e-219
6.474255337e-215
1.770990929e-210
3.626104773e-206
5.795059716e-202
7.482905049e-198
8.009820812e-194
7.197734339e-190
5.529492842e-186
3.655139124e-182
2.090350847e-178
1.04267348e-174
4.52458584e-171
1.701758748e-167
5.502705385e-164
1.505515823e-160
3.387668782e-157
5.957630903e-154
7.405282144e-151
4.865025722e-148
3.16258825e-150
8.979927918e-141
4.498588745e-148
7.205663837e-126
4.407674587e-146
6.010980936e-110
2.128512462e-112
0
7.489153922e-82
1.435841337e-83
0
1.261018245e-63
5.20750473e-68
9.867223923e-53
6.594296595e-53
3.093164365e-72
1.138471013e-08
0.002423891537
0.06710327003
1.518067448e-224
7.52317045e-220
2.651501092e-215
6.577433967e-211
1.221613544e-206
1.777277426e-202
2.105048877e-198
2.071102881e-194
1.727410045e-190
1.241599773e-186
7.789717905e-183
4.305936848e-179
2.127417632e-175
9.44608394e-172
3.798080107e-168
1.392670142e-164
4.652344937e-161
1.400194702e-157
3.677481856e-154
7.771654588e-151
6.698864913e-148
1.244577437e-149
1.16051385e-141
4.237952032e-148
1.131636714e-126
6.891409528e-146
1.918308962e-106
1.897571137e-112
8.615152004e-87
7.162332831e-83
3.682044091e-84
0
3.233819977e-64
4.856717035e-68
4.404099558e-54
1.810739888e-55
0
2.135521296e-07
0.002608809272
0.0673971193
7.49029592e-224
4.076928259e-219
1.582909821e-214
4.334299698e-210
8.908132521e-206
1.437716344e-201
1.89371791e-197
2.078268611e-193
1.935116488e-189
1.55762702e-185
1.092967142e-181
6.756161936e-178
3.718240599e-174
1.823913339e-170
8.006476882e-167
3.153675945e-163
1.106143903e-159
3.40213634e-156
8.87536294e-153
1.812628561e-149
1.171569999e-146
3.606512969e-147
1.656210135e-152
1.619965443e-132
2.38067007e-128
1.057153923e-130
6.025177676e-105
3.119158507e-101
3.844237649e-87
1.24856634e-83
1.931257627e-85
1.398414658e-89
1.441708866e-65
5.20750473e-68
1.354756982e-56
1.608284939e-58
1.311029408e-78
4.489193508e-07
0.002797038563
0.06747400275
4.046932117e-224
2.245989831e-219
8.894466695e-215
2.500715753e-210
5.30428617e-206
8.864847089e-202
1.20571221e-197
1.377904286e-193
1.33335824e-189
1.116997848e-185
8.130390628e-182
5.223827401e-178
2.957131523e-174
1.487161635e-170
6.647723442e-167
2.630624146e-163
9.172965262e-160
2.796141107e-156
7.270167656e-153
1.529497536e-149
1.385725292e-146
3.265268205e-145
5.054366147e-150
1.231403895e-132
4.190060463e-131
0
3.605999046e-107
8.923365895e-93
0
1.023236939e-82
0
7.576543043e-71
6.488164806e-68
4.856717035e-68
1.795759263e-60
1.866755684e-62
1.988570991e-83
6.942416409e-07
0.002970837136
0.06770100349
5.447339001e-225
2.550041151e-220
9.040946982e-216
2.350695876e-211
4.705545842e-207
7.573512629e-203
9.997216184e-199
1.103898511e-194
1.046754689e-190
8.538512907e-187
6.107198773e-183
3.834561632e-179
2.146996443e-175
1.070138923e-171
4.799581288e-168
1.949568251e-164
7.213582861e-161
2.466156345e-157
7.949409435e-154
2.496243568e-150
1.198297138e-146
1.636661282e-143
1.379493179e-152
1.722462557e-133
5.070433948e-135
1.923561746e-139
2.27473776e-136
4.446024306e-93
1.355456189e-96
1.028956418e-82
6.80660778e-102
2.330126999e-71
2.234304569e-78
1.542659493e-65
3.417987586e-64
8.943554386e-65
7.137285353e-85
9.591072845e-07
0.003110900625
0.067810669
4.381719922e-223
1.287953401e-218
2.781938535e-214
4.355356074e-210
5.249402774e-206
5.081604211e-202
4.076940175e-198
2.768218416e-194
1.61374203e-190
8.202355321e-187
3.668635463e-183
1.458104077e-179
5.218194664e-176
1.704697286e-172
5.199036951e-169
1.527425753e-165
4.444021929e-162
1.306980891e-158
3.908505945e-155
1.257866158e-151
3.766325451e-147
1.640852905e-143
5.05561981e-150
1.668738172e-134
4.670879628e-137
1.514028597e-139
0
3.925230014e-94
0
5.598603618e-83
1.824627147e-112
7.902427881e-73
1.462053202e-78
4.975026418e-66
1.527789854e-64
2.114474825e-66
3.243644088e-90
1.248211765e-06
0.003226365692
0.06800112183
9.230219629e-221
2.603993478e-216
5.349593472e-212
7.893304524e-208
8.883753934e-204
7.952199293e-200
5.832531219e-196
3.577074914e-192
1.858819991e-188
8.285661186e-185
3.186641389e-181
1.061048249e-177
3.067973707e-174
7.670515381e-171
1.648994806e-167
3.004065541e-164
4.521558272e-161
5.371027399e-158
4.602414513e-155
2.424199142e-152
5.461588564e-149
6.294871625e-144
2.610102945e-152
7.22692239e-136
0
4.52439894e-135
3.692192556e-99
3.285185539e-96
3.237372964e-93
7.556831283e-102
1.670503706e-79
1.547667426e-75
2.234304569e-78
2.697118274e-67
3.434653606e-65
1.269809263e-67
2.939353745e-90
1.563381328e-06
0.00332332361
0.06810110597
1.545575009e-218
4.212604597e-214
8.289944762e-210
1.161865042e-205
1.232008768e-201
1.03034271e-197
6.990975883e-194
3.926888676e-190
1.849699984e-186
7.382556823e-183
2.507412343e-179
7.256507599e-176
1.790709996e-172
3.741779157e-169
6.562585448e-166
9.504500064e-163
1.107300621e-159
9.931207621e-157
6.320025743e-154
2.316701379e-151
4.328831543e-150
3.637092923e-145
5.314751365e-150
1.72740396e-138
0
3.209809259e-105
4.323074727e-100
4.09406664e-100
6.007758741e-91
7.704474128e-111
4.801840762e-80
7.937741829e-85
1.001355588e-73
1.643814805e-69
1.53276079e-66
2.904233961e-69
1.315969592e-89
1.868423223e-06
0.003405614864
0.06825989493
1.904730938e-216
5.07186811e-212
9.683362375e-208
1.308092302e-203
1.328974054e-199
1.058869358e-195
6.802881383e-192
3.596685834e-188
1.586471225e-184
5.899139129e-181
1.855173051e-177
4.942138809e-174
1.115252745e-170
2.114794891e-167
3.333856853e-164
4.295802711e-161
4.393241555e-158
3.414819225e-155
1.868458082e-152
6.007482965e-150
2.21921901e-148
1.835700346e-147
2.023159828e-150
0
0
3.089977271e-105
6.86420829e-104
1.522341825e-97
1.55486807e-90
0
1.225533957e-81
7.620509408e-85
3.917952584e-74
8.528049854e-73
7.142522246e-69
7.814731334e-72
1.396952844e-76
2.144769781e-06
0.003476036317
0.0683767401
1.44511471e-214
3.79308084e-210
7.104068325e-206
9.369900722e-202
9.25231489e-198
7.133439636e-194
4.415673628e-190
2.238705646e-186
9.43461666e-183
3.339116743e-179
9.950202836e-176
2.501299843e-172
5.304901206e-169
9.400129384e-166
1.376331198e-162
1.633095113e-159
1.518971353e-156
1.05212143e-153
4.943979346e-151
1.273337719e-148
5.955969035e-147
7.408639434e-150
1.816268138e-148
1.17914757e-134
1.786028566e-110
1.471340845e-106
1.302663836e-106
2.966517385e-96
4.516645301e-91
0
2.092730511e-84
7.937741829e-85
1.601077868e-75
5.192164316e-77
2.127579877e-72
1.102669173e-75
0
2.394701154e-06
0.003536804304
0.06848146386
4.889967602e-213
1.249459511e-208
2.285209e-204
2.950800528e-200
2.854613115e-196
2.156690716e-192
1.308690808e-188
6.501559529e-185
2.685490743e-181
9.270225451e-178
2.684699753e-174
6.527956784e-171
1.329153103e-167
2.241481918e-164
3.085324929e-161
3.383822418e-158
2.837303601e-155
1.693723639e-152
6.21346822e-150
8.380723561e-148
1.70272287e-146
7.340979874e-150
0
1.392490613e-115
1.981061269e-111
3.04042041e-123
1.247611795e-101
3.09392743e-96
1.418815659e-92
1.116413289e-110
2.126253941e-85
6.274115019e-82
3.619801483e-78
7.227874523e-81
6.20220049e-77
2.002999188e-80
3.056227229e-87
2.620710455e-06
0.003589460005
0.06861881804
3.1703904e-211
8.00320997e-207
1.437725862e-202
1.81320634e-198
1.703803299e-194
1.243633247e-190
7.253645769e-187
3.447036364e-183
1.356307108e-179
4.443065431e-176
1.217135647e-172
2.790145187e-169
5.345945537e-166
8.464158301e-163
1.090373836e-159
1.113809464e-156
8.619959705e-154
4.654004903e-151
1.462844641e-148
1.252067965e-146
1.37893497e-146
0
1.309464302e-120
2.166091849e-116
4.32226038e-114
2.881623882e-114
2.603866238e-101
2.073940789e-97
1.244129821e-95
1.066973539e-90
2.432358887e-86
7.921784186e-83
2.804522584e-82
7.675965217e-85
1.686595875e-81
4.142782392e-85
1.029502669e-88
2.825250188e-06
0.003635272164
0.06873944126
2.325181545e-210
5.54282926e-206
9.477425496e-202
1.149124993e-197
1.051973344e-193
7.586281789e-190
4.441175941e-186
2.154597617e-182
8.78088413e-179
3.030567118e-175
8.882503155e-172
2.199372969e-168
4.558278672e-165
7.785407144e-162
1.068675618e-158
1.130776591e-155
8.618736815e-153
4.143690793e-150
8.456095289e-148
1.890671775e-146
1.383172158e-146
8.285229808e-126
2.812959692e-121
1.938894554e-118
1.713230759e-118
2.27943143e-106
2.972688384e-102
4.788872498e-100
1.266478654e-96
5.091043403e-91
4.73611199e-88
5.138858651e-85
4.393299531e-87
4.886196405e-89
4.317891715e-86
9.558264526e-90
0
3.010723162e-06
0.003675359015
0.06884333805
3.39513381e-209
9.442406919e-205
1.878833503e-200
2.633610224e-196
2.755288597e-192
2.239551716e-188
1.452546888e-184
7.651974221e-181
3.316015962e-177
1.18961975e-173
3.533138496e-170
8.663186235e-167
1.739990989e-163
2.825943167e-160
3.617142571e-157
3.504717638e-154
2.396596985e-151
9.979869077e-149
1.378793404e-146
1.384490709e-146
1.830336393e-132
3.249650154e-126
4.689077484e-123
4.283272759e-123
1.858704899e-111
4.917075741e-107
1.859272502e-104
1.634044686e-104
4.174122829e-96
3.394228544e-92
7.054443981e-91
7.913462986e-89
6.617953229e-92
2.189180869e-93
1.054023014e-90
2.34450831e-94
2.973756517e-101
3.179485751e-06
0.003710681612
0.06893362253
2.202050296e-208
5.642264152e-204
1.030731125e-199
1.322682269e-195
1.263859921e-191
9.363678618e-188
5.525530788e-184
2.64366258e-180
1.037171208e-176
3.357447952e-173
8.983717109e-170
1.981827421e-166
3.577726154e-163
5.214677603e-160
6.003892703e-157
5.272282643e-154
3.326118195e-151
1.33384095e-148
2.255601079e-146
3.713871158e-146
3.512374505e-131
1.422741344e-127
1.534964514e-136
2.827263419e-118
8.439746432e-112
8.826706615e-109
8.120283844e-109
2.242455888e-101
9.276763987e-97
1.674314063e-94
4.61772373e-95
7.984350831e-94
9.36949271e-97
8.036041949e-98
2.480066986e-95
5.808874445e-99
1.179028045e-102
3.33382158e-06
0.003742054665
0.06901276076
1.588168285e-208
3.9432152e-204
7.015764534e-200
8.813887421e-196
8.289697181e-192
6.07999494e-188
3.574000603e-184
1.715401505e-180
6.8083768e-177
2.254150782e-173
6.266439539e-170
1.47202324e-166
2.94682892e-163
5.084654383e-160
7.612181433e-157
9.658674817e-154
9.394790243e-151
5.257113911e-148
2.510426742e-146
3.862046004e-137
3.997791235e-132
3.663146792e-130
4.594562726e-135
1.383549346e-116
3.756402608e-113
4.880435382e-112
1.39288278e-107
1.518411936e-101
1.725751165e-98
3.755110215e-98
9.663269456e-100
6.912037222e-99
1.282389409e-101
2.597936526e-102
5.675722459e-100
1.421331111e-103
1.840649294e-105
3.475914869e-06
0.00377017355
0.06908274444
2.104764818e-209
6.014789973e-205
1.273790894e-200
1.985811561e-196
2.43734408e-192
2.470792303e-188
2.132322147e-184
1.591221072e-180
1.030830482e-176
5.773749481e-173
2.770920746e-169
1.125322849e-165
3.805285802e-162
1.047954498e-158
2.274003003e-155
3.679133767e-152
3.976777e-149
2.096906075e-146
4.569812794e-146
2.040253474e-137
2.877429984e-134
0
1.730696679e-122
1.529810675e-117
9.406753034e-116
8.360793398e-116
1.365880296e-106
7.813008044e-103
1.507374249e-101
7.772383468e-103
2.017998258e-104
5.741682682e-104
1.715622512e-106
7.670186196e-107
1.270299801e-104
3.403494185e-108
1.165921848e-109
3.607850734e-06
0.003795649963
0.06914523997
4.952480631e-210
1.660473947e-205
4.218566574e-201
7.921657932e-197
1.156554021e-192
1.358931155e-188
1.313834767e-184
1.060021506e-180
7.198055003e-177
4.131392629e-173
2.005423383e-169
8.206053475e-166
2.80833747e-162
7.922291852e-159
1.796306496e-155
3.128516821e-152
3.820071271e-149
2.572292819e-146
9.958944371e-143
5.93134837e-139
8.368617491e-138
4.669630183e-140
6.031125933e-123
8.859242238e-120
1.039612466e-131
6.212096878e-112
2.095042496e-107
1.838066029e-105
4.158086806e-106
1.500050744e-107
4.221232603e-109
5.082250052e-109
2.251919216e-111
2.107527244e-111
2.78476417e-109
7.942554388e-113
2.224499247e-114
3.73165029e-06
0.003819034919
0.06920167591
8.084922484e-210
1.735893961e-205
2.694847293e-201
2.997181014e-197
2.563472384e-193
1.799407724e-189
1.109196034e-185
6.42326212e-182
3.64483024e-178
2.015533276e-174
1.045421438e-170
4.88547517e-167
1.997126729e-163
6.986342517e-160
2.047113888e-156
4.885545874e-153
9.086270487e-150
1.208539928e-146
1.347835694e-143
7.77108811e-142
6.804211294e-142
2.005706476e-129
6.497534133e-125
1.467086774e-123
6.168274829e-126
2.667060126e-112
2.152939212e-109
1.507966846e-109
6.568175766e-111
2.707887236e-112
8.75438267e-114
5.29914652e-114
2.897195107e-116
5.442145926e-116
5.968792509e-114
1.800986127e-117
3.997204401e-119
3.849310815e-06
0.003840837017
0.06925330201
8.251405318e-210
1.745877275e-205
2.659692643e-201
2.8698559e-197
2.322276725e-193
1.466199066e-189
7.415620551e-186
3.058383888e-182
1.0411462e-178
2.952050676e-175
7.037444557e-172
1.436496242e-168
2.636102668e-165
4.878272661e-162
1.056891225e-158
2.692314827e-155
6.995803577e-152
1.6754931e-148
1.112253313e-145
5.190078782e-146
1.015974058e-134
1.52269851e-130
1.373770081e-128
1.067016167e-128
1.497747408e-118
3.743726389e-114
8.260422937e-113
2.750136352e-114
1.075316318e-115
4.634376081e-117
1.771374601e-118
6.173457808e-119
3.671730828e-121
1.327079212e-120
1.246261296e-118
3.964744506e-122
1.400389879e-120
3.962855097e-06
0.00386154803
0.06930122997
7.859455151e-210
1.331914186e-205
1.861679134e-201
2.08341264e-197
1.910937359e-193
1.445892474e-189
9.058194175e-186
4.720848151e-182
2.056864146e-178
7.51982701e-175
2.310363619e-171
5.956346803e-168
1.281626662e-164
2.276863921e-161
3.277560244e-158
3.703894342e-155
3.111018989e-152
1.752355174e-149
5.238744026e-147
2.859982693e-146
1.200009746e-135
5.67297437e-133
0
1.708431432e-123
1.325027653e-119
1.01298114e-117
1.299356212e-117
5.116666618e-119
1.77122195e-120
7.617248833e-122
3.464392691e-123
7.518849143e-124
4.628535356e-126
3.065942009e-125
2.524748043e-123
8.34670422e-127
0
4.074416113e-06
0.003881694221
0.06934647569
1.409226325e-209
1.733483969e-205
1.578677395e-201
1.07737065e-197
6.088391689e-194
3.098803778e-190
1.484220595e-186
6.655061981e-183
2.711022214e-179
9.765620041e-176
3.062661399e-172
8.303579838e-169
1.940871487e-165
3.911093604e-162
6.83404965e-159
1.056276287e-155
1.502299209e-152
2.031788419e-149
2.285696043e-146
1.52859137e-142
4.027963819e-138
5.388527911e-137
1.236788201e-143
2.338777057e-124
8.009426073e-122
1.129023689e-122
1.782485043e-122
9.236622818e-124
2.930469417e-125
1.220794404e-126
6.535907071e-128
9.373812141e-129
5.884875073e-131
6.728884678e-130
4.946284212e-128
0
0
4.186413144e-06
0.003901935103
0.06939004851
8.972299919e-209
1.267624534e-204
1.286128739e-200
9.220438759e-197
4.945987165e-193
2.065474708e-189
6.894978774e-186
1.873001898e-182
4.191227469e-179
7.794977018e-176
1.215490165e-172
1.613919e-169
1.89844168e-166
2.174400437e-163
2.801489014e-160
4.353204596e-157
7.674512527e-154
1.429255444e-150
2.701129647e-147
4.172158427e-144
1.897055222e-142
1.409231159e-142
3.076117256e-131
9.737064487e-127
1.682915824e-125
1.791847994e-127
2.143986811e-127
1.59657958e-128
4.936912395e-130
1.935225163e-131
1.193609203e-132
1.224534992e-133
7.84753713e-136
1.240596416e-134
0
0
0
4.301838829e-06
0.003923243788
0.06943459013
8.994085233e-209
1.269001625e-204
1.283999355e-200
9.170232331e-197
4.896587237e-193
2.034375457e-189
6.753500497e-186
1.823518061e-182
4.051980663e-179
7.463549816e-176
1.143741379e-172
1.458959946e-169
1.545477118e-166
1.352580484e-163
9.708481897e-161
5.67350568e-158
2.704058082e-155
1.100762988e-152
4.897822159e-150
3.098207693e-147
2.479407062e-146
4.256994311e-137
8.273756782e-133
6.132449145e-131
2.188693802e-130
4.055837112e-132
2.302610299e-132
2.631023417e-133
8.516549993e-135
3.010085673e-136
2.087561404e-137
4.280904574e-138
3.16492453e-138
2.264195986e-131
1.562146268e-128
5.175715238e-127
6.36282129e-119
4.425471638e-06
0.003946539983
0.06934866775
8.374176356e-210
1.220754585e-205
1.281911445e-201
9.553835333e-198
5.360080215e-194
2.360720511e-190
8.408002426e-187
2.477525562e-183
6.160952622e-180
1.319231035e-176
2.487859896e-173
4.233498198e-170
6.631335742e-167
9.614672745e-164
1.271109005e-160
1.483882287e-157
1.46578941e-154
1.15990797e-151
6.723167477e-149
2.262894208e-146
4.328338509e-143
5.057223696e-138
7.595303148e-136
4.663018941e-136
2.318965001e-135
1.103746252e-136
1.01309788e-136
4.295425634e-136
7.116927062e-135
3.637387086e-134
8.342799082e-134
3.641714319e-132
2.3054942e-131
4.98341511e-127
4.847158774e-123
1.386520982e-119
1.740402899e-116
4.563302483e-06
0.003971806916
0.06919734003
3.212850073e-212
5.605242513e-208
7.098159592e-204
6.432286434e-200
4.429691896e-196
2.422386154e-192
1.086600015e-188
4.103086594e-185
1.333516383e-181
3.805056327e-178
9.727766657e-175
2.299708142e-171
5.358198219e-168
1.335208837e-164
3.53822778e-161
8.743003812e-158
1.7522266e-154
2.575144262e-151
2.379599268e-148
4.754176846e-146
4.91600608e-143
2.586584339e-140
3.271955058e-140
2.839743298e-140
3.12807729e-132
4.232796675e-131
1.011030278e-131
4.129359169e-130
6.299248799e-129
2.613362894e-128
1.993023522e-127
4.367298778e-126
8.149300651e-125
2.916899637e-122
3.29991777e-119
4.464258433e-117
0
4.717926034e-06
0.004000037047
0.06915185314
3.450412517e-216
7.779143439e-212
1.338118453e-207
1.81127766e-203
2.18841104e-199
2.611640537e-195
3.50185125e-191
6.732896166e-187
1.598127492e-182
3.131597158e-178
4.366100089e-174
4.291425945e-170
3.03481024e-166
1.571421473e-162
6.018840332e-159
1.720298087e-155
3.609152234e-152
4.929750496e-149
3.481822532e-146
4.877945791e-141
2.644952678e-139
1.798196678e-137
6.450026744e-137
2.407531519e-140
2.303648046e-129
3.926548481e-126
8.546576887e-126
3.730985062e-124
4.929147093e-123
1.641568813e-122
3.297226503e-121
5.23761087e-120
1.888964443e-118
9.722664599e-117
2.449546449e-117
0
0
4.896148991e-06
0.00403210128
0.06903888501
3.522126195e-214
9.075768212e-210
1.716891096e-205
2.362618254e-201
2.546749226e-197
2.399208074e-193
2.471046449e-189
3.225829755e-185
4.32622972e-181
4.773236047e-177
4.031975799e-173
2.588805159e-169
1.271123312e-165
4.784351858e-162
1.371911749e-158
2.949442668e-155
4.596057473e-152
4.746140277e-149
2.457995413e-146
9.339043065e-139
4.081940671e-134
1.611389243e-132
2.582487725e-131
7.698028185e-131
6.817096308e-131
8.905233172e-124
6.232378415e-120
3.035339975e-118
3.202911724e-117
8.842765225e-117
4.142262574e-115
9.971137745e-114
4.377287949e-112
9.799637534e-111
0
0
0
5.111077932e-06
0.004068328636
0.0691750179
1.23350055e-211
2.957209786e-207
5.183324853e-203
6.586708667e-199
6.481368496e-195
5.180121771e-191
3.471681265e-187
1.987748245e-183
9.795172986e-180
4.149005714e-176
1.5002691e-172
4.584979617e-169
1.170246679e-165
2.460015943e-162
4.185755418e-159
5.631638253e-156
5.785035455e-153
4.234677594e-150
1.853645421e-147
2.514552066e-146
1.444425265e-131
5.484948643e-127
1.352159516e-125
3.365400236e-125
8.559537842e-125
2.908738507e-125
4.748898055e-115
2.26964258e-112
1.626386846e-111
6.130160048e-111
5.592671928e-109
6.543450688e-107
7.38382277e-106
7.756233244e-105
9.97141421e-106
4.499941508e-114
1.544545963e-94
5.348041216e-06
0.004110575006
0.06866265894
2.129904791e-209
4.524223482e-205
6.84289926e-201
7.254465496e-197
5.710485633e-193
3.473914395e-189
1.677344823e-185
6.543853258e-182
2.087116897e-178
5.481082072e-175
1.189270615e-171
2.132519854e-168
3.153351935e-165
3.840979085e-162
3.916265709e-159
3.696202444e-156
4.500482482e-153
9.621115326e-150
2.256507109e-146
9.247281519e-143
6.313244749e-143
2.472772754e-124
1.70023448e-120
1.810843247e-119
8.108698245e-119
2.600003114e-125
1.052002225e-112
5.130417291e-108
5.878633993e-106
1.339681892e-104
3.388163979e-101
5.914928575e-101
1.139270717e-99
4.787766181e-99
7.1096694e-100
6.262295714e-109
8.629764145e-90
5.64498719e-06
0.004154384452
0.06838619681
1.219726661e-209
1.972705213e-205
2.289022229e-201
1.879441622e-197
1.160721444e-193
5.655665149e-190
2.277068321e-186
8.081937665e-183
2.788691663e-179
1.023312918e-175
3.95212062e-172
1.459509721e-168
4.725272759e-165
1.275957488e-161
2.780203878e-158
4.727046517e-155
6.030764598e-152
5.330945147e-149
2.473615705e-146
1.348780524e-139
2.36986161e-136
1.854383608e-136
4.920162925e-118
5.395760467e-114
8.430330067e-113
1.186144527e-111
9.079191974e-113
7.49844599e-106
6.282395369e-102
1.121222271e-96
2.881223104e-96
6.88731221e-94
1.136333521e-93
2.563967666e-93
3.629353441e-94
2.775577396e-91
5.149461797e-85
5.970476404e-06
0.004202728289
0.06822791811
6.62420672e-211
1.027591494e-206
1.145828807e-202
9.08674313e-199
5.493340945e-195
2.69929864e-191
1.152858503e-187
4.56450011e-184
1.732549242e-180
6.209907901e-177
2.019768036e-173
5.78211422e-170
1.444312744e-166
3.179388335e-163
6.350013799e-160
1.249066849e-156
2.573230512e-153
7.998772647e-150
1.659970648e-146
3.268831173e-146
1.849126762e-133
7.316149565e-131
1.314487482e-130
2.843395388e-111
1.179057636e-106
8.943981926e-106
9.514792124e-105
3.601655341e-104
1.080793607e-104
1.267769699e-104
3.474992424e-89
5.038983978e-88
1.336271059e-87
1.229026405e-87
1.35498704e-88
1.339699096e-85
3.296771127e-80
6.35067755e-06
0.004248933948
0.06810455053
1.125725373e-212
1.675556667e-208
1.806086451e-204
1.395085528e-200
8.269284292e-197
4.003722055e-193
1.701727477e-189
7.058625418e-186
4.163173939e-182
7.357455846e-178
1.539824534e-173
2.093544279e-169
1.819681876e-165
1.18669603e-161
7.268078169e-158
3.809099065e-154
2.923111638e-150
1.539600072e-146
9.333990844e-143
3.119323263e-142
1.4488678e-142
1.180074967e-125
6.776009134e-125
1.22862717e-124
4.518681733e-104
1.259089753e-99
2.08786597e-98
5.507000983e-98
3.146100825e-98
1.052717124e-104
1.053883541e-86
1.172230631e-82
1.117453707e-81
5.944464796e-82
3.835772886e-83
5.250074541e-81
6.547498514e-76
6.756056053e-06
0.004295582149
0.06768050459
5.744322669e-211
9.434284502e-207
1.111430094e-202
9.250781829e-199
5.783088919e-195
2.903426715e-191
1.395880597e-187
1.584074066e-183
5.67791249e-179
1.50434474e-174
2.335426035e-170
2.237322676e-166
1.384039491e-162
5.674106867e-159
1.576910179e-155
3.056455691e-152
3.99414226e-149
2.62169734e-146
4.681476948e-139
1.772265694e-135
1.339013801e-142
3.805365689e-123
1.692844109e-118
4.047045608e-117
3.978615991e-116
1.567976996e-96
9.740334927e-93
5.63610387e-92
1.661858693e-92
3.970433449e-91
2.837163578e-91
3.733079831e-80
6.875661472e-77
2.511542303e-76
1.050099015e-77
1.46815259e-75
1.27711856e-73
7.199353409e-06
0.004334895917
0.06738696438
6.744655006e-210
9.239741134e-206
9.627743792e-202