/*--------------------------------*- C++ -*----------------------------------*\
| =========                 |                                                 |
| \\      /  F ield         | OpenFOAM: The Open Source CFD Toolbox           |
|  \\    /   O peration     | Version:  v1912                                 |
|   \\  /    A nd           | Website:  www.openfoam.com                      |
|    \\/     M anipulation  |                                                 |
\*---------------------------------------------------------------------------*/
FoamFile
{
    version     2.0;
    format      ascii;
    class       volScalarField;
    location    "0.2";
    object      iDmdt.gasAndLiquid;
}
// * * * * * * * * * * * * * * * * * * * * * * * * * * * * * * * * * * * * * //

dimensions      [1 -3 -1 0 0 0 0];


internalField   nonuniform List<scalar> 
4800
(
9.301192518e-240
6.572728941e-235
3.265909978e-230
1.135149744e-225
2.969302513e-221
6.07941554e-217
1.010379667e-212
1.401415344e-208
1.653303662e-204
1.681891809e-200
1.502065186e-196
1.189236314e-192
8.414463587e-189
5.365087812e-185
3.103117566e-181
1.636377866e-177
7.930101933e-174
3.525795462e-170
1.435893681e-166
5.387194017e-163
1.83279448e-159
5.610654744e-156
1.49909361e-152
2.846483678e-149
9.828233533e-148
8.466295364e-145
6.084357134e-146
2.832765351e-159
5.560289628e-105
6.471681122e-107
0
1.323072259e-77
2.582528076e-75
2.589724103e-75
1.325093197e-60
0
4.212305426e-49
1.305837058e-62
-3.038510587e-22
0.2151580638
8.703319455e-239
5.918698106e-234
2.859866037e-229
9.744869578e-225
2.491270541e-220
5.027253448e-216
8.301302796e-212
1.146907809e-207
1.357717882e-203
1.400790199e-199
1.273470116e-195
1.033532163e-191
7.574002548e-188
5.049989847e-184
3.087752785e-180
1.742338235e-176
9.110992601e-173
4.4325676e-169
2.016089854e-165
8.613984066e-162
3.473222058e-158
1.335718469e-154
4.989331785e-151
7.39614934e-149
7.398468022e-149
8.878554356e-139
3.725732933e-140
0
2.925788342e-102
1.331925924e-101
0
6.791399289e-74
7.239489673e-74
5.406075969e-63
1.341542914e-57
3.97023772e-76
4.00354168e-45
1.825018305e-64
-0.0004228521158
0.3406395768
8.905552948e-237
6.390955999e-232
3.238882433e-227
1.157727323e-222
3.091790394e-218
6.456931423e-214
1.103395986e-209
1.563058754e-205
1.894091741e-201
1.980944875e-197
1.814539893e-193
1.473962611e-189
1.073867019e-185
7.062900373e-182
4.227301508e-178
2.317068971e-174
1.167584614e-170
5.428054853e-167
2.340409497e-163
9.409902199e-160
3.540763336e-156
1.261362025e-152
4.322919398e-149
3.905174378e-149
3.159331258e-146
3.449734365e-133
1.182891091e-134
0
0
5.895672743e-96
0
2.066853535e-72
0
2.377011047e-56
1.775557103e-56
1.515692649e-64
5.912592576e-43
1.073586669e-62
-0.0006884711626
0.4495040773
1.333383483e-235
9.146006568e-231
4.43044651e-226
1.502592032e-221
3.821483253e-217
7.637592748e-213
1.234616591e-208
1.67147891e-204
1.91774159e-200
1.900380001e-196
1.653667832e-192
1.272415081e-188
8.745683255e-185
5.413065916e-181
3.035466482e-177
1.548521147e-173
7.198940901e-170
3.057120225e-166
1.174773615e-162
4.035046152e-159
1.206392858e-155
2.95030105e-152
3.941388252e-149
3.720831452e-149
5.152245138e-134
1.674674873e-129
5.518735222e-131
1.92110699e-134
0
6.600475719e-91
7.29214937e-110
2.047071062e-72
0
1.235836448e-53
1.755852251e-56
3.003369065e-46
3.971680338e-42
1.237039528e-67
-0.001529953446
0.5404340879
1.205966791e-234
8.698905329e-230
4.456218252e-225
1.607492316e-220
4.348423022e-216
9.311622587e-212
1.623432269e-207
2.368932962e-203
2.943800827e-199
3.18149727e-195
3.01057042e-191
2.523490924e-187
1.890907031e-183
1.275040889e-179
7.771557492e-176
4.290482065e-172
2.143376396e-168
9.640669442e-165
3.863953562e-161
1.356896832e-157
3.981334747e-154
8.921786016e-151
5.55375989e-149
3.679362987e-149
2.147976271e-131
9.635222805e-128
4.90364346e-129
2.758344226e-131
0
5.849180724e-88
4.282692904e-107
1.812511742e-72
1.140068697e-91
1.841271062e-52
1.744084059e-56
3.149408215e-44
3.942041095e-42
1.71352273e-65
-0.002811119565
0.5952336039
1.612392528e-232
1.15988083e-227
5.88647045e-223
2.089519193e-218
5.528171713e-214
1.15137891e-209
1.939967894e-205
2.72149868e-201
3.232320475e-197
3.322437981e-193
2.97508812e-189
2.348434606e-185
1.649547888e-181
1.038206317e-177
5.882530087e-174
3.007021248e-170
1.385582375e-166
5.72712956e-163
2.101697684e-159
6.731977207e-156
1.794093268e-152
3.631231817e-149
9.486887789e-151
2.758895263e-143
1.440713341e-131
3.643112077e-127
1.637215595e-124
4.587456913e-126
0
1.346839345e-86
0
6.843346737e-73
4.982024651e-92
2.240872449e-52
1.716323496e-56
6.37444645e-44
3.619370594e-42
0
-0.003284424337
0.6244072621
8.542560471e-234
6.065947983e-229
3.047458805e-224
1.073611077e-219
2.830041316e-215
5.894134842e-211
9.924617824e-207
1.39988305e-202
1.671417899e-198
1.734751981e-194
1.574049371e-190
1.263472991e-186
9.062008824e-183
5.854424715e-179
3.427501585e-175
1.826068107e-171
8.871634609e-168
3.929145295e-164
1.581065031e-160
5.766663006e-157
1.8749112e-153
5.393210097e-150
2.006630702e-151
1.612780937e-135
0
7.468577736e-124
2.273842503e-121
5.388872584e-123
3.044363225e-142
2.13021759e-85
1.070370011e-104
6.064693456e-74
2.458109293e-92
2.215290834e-52
1.704552861e-56
5.313054626e-44
1.564109059e-42
0
-0.004602732366
0.6444414401
5.841921894e-233
3.311416084e-228
1.362434596e-223
4.034844455e-219
9.14631765e-215
1.656271233e-210
2.474581208e-206
3.129670401e-202
3.390898611e-198
3.203288881e-194
2.65248646e-190
1.935305489e-186
1.252287704e-182
7.165420249e-179
3.609277685e-175
1.586667502e-171
5.991657357e-168
1.891466207e-164
4.765263431e-161
8.820763959e-158
1.02895731e-154
7.645003761e-152
7.643152835e-152
1.310012614e-135
4.072041809e-155
5.039643062e-122
5.030619265e-120
1.229429492e-121
2.2126834e-141
2.05059582e-82
5.0218914e-101
2.918244778e-72
5.351879703e-91
1.456471552e-52
1.692672722e-56
2.075688387e-44
1.829845515e-43
0
-0.006179664584
0.6634397966
1.961795265e-230
1.097451929e-225
4.435167658e-221
1.285272926e-216
2.84052475e-212
4.991222381e-208
7.21028925e-204
8.779824281e-200
9.119682233e-196
8.220207456e-192
6.465374158e-188
4.458685193e-184
2.714281413e-180
1.453780336e-176
6.819584479e-173
2.776789212e-169
9.651428414e-166
2.781117657e-162
6.306279006e-159
1.015281809e-155
8.859578538e-153
7.332345567e-152
2.077990491e-149
2.314815413e-136
0
1.900673828e-121
5.06767401e-120
1.715777898e-121
0
3.811485245e-81
1.336050125e-82
2.932837448e-71
1.330005573e-91
3.452907907e-53
1.680678368e-56
2.291417489e-45
3.4986641e-45
0
-0.007891561894
0.6852175152
4.920695987e-228
2.736693609e-223
1.092118311e-218
3.105309651e-214
6.692246967e-210
1.139670486e-205
1.586400235e-201
1.851050967e-197
1.832557179e-193
1.566486481e-189
1.162929089e-185
7.535571387e-182
4.292758284e-178
2.143261063e-174
9.338179676e-171
3.519736929e-167
1.128851764e-163
2.992372699e-160
6.223258447e-157
9.160704644e-154
7.25389536e-151
9.097112563e-152
1.409556395e-141
2.840544414e-138
1.047007736e-132
1.954168066e-121
5.695006656e-120
1.375506913e-118
0
3.780930193e-81
1.084433407e-83
1.148588038e-71
1.062795479e-74
1.391874619e-54
1.660287496e-56
4.322055466e-47
6.848627173e-48
0
-0.009776626753
0.7032531184
7.630950083e-226
4.218966883e-221
1.662214043e-216
4.636048896e-212
9.739146913e-208
1.606783533e-203
2.154262409e-199
2.407638902e-195
2.270928593e-191
1.840264508e-187
1.289104411e-183
7.846905201e-180
4.182396916e-176
1.946424325e-172
7.877445494e-169
2.749132798e-165
8.139312635e-162
1.98624987e-158
3.793367886e-155
5.117548821e-152
3.688054719e-149
5.762401141e-150
2.458825844e-140
2.671207918e-142
2.027011263e-125
2.260730178e-140
5.309992446e-115
3.56026589e-114
8.560019141e-125
3.433701586e-81
1.089217056e-83
6.436669652e-73
2.792299738e-63
8.954280324e-68
5.096917481e-52
1.016753871e-49
1.278978173e-51
0
-0.01166254364
0.7001379874
5.53749417e-224
3.042732642e-219
1.183278425e-214
3.236560188e-210
6.626381927e-206
1.058915898e-201
1.367224785e-197
1.463377519e-193
1.31489618e-189
1.010044746e-185
6.676005889e-182
3.817572877e-178
1.904013472e-174
8.261387667e-171
3.106885937e-167
1.004525719e-163
2.748141947e-160
6.183745533e-157
1.087646703e-153
1.35265843e-150
8.885357465e-148
5.803644118e-150
1.660770382e-140
8.433551446e-148
1.33320411e-125
0
1.413737682e-109
5.562764067e-112
0
1.407457796e-81
2.783850391e-83
0
2.305261453e-63
9.485872559e-68
1.863939053e-52
1.257460776e-52
1.591619046e-55
0
-0.01366180939
0.7298696114
2.751017793e-224
1.363867755e-219
4.809067752e-215
1.193599554e-210
2.218265285e-206
3.229731683e-202
3.828872243e-198
3.771295517e-194
3.149607256e-190
2.267449569e-186
1.425271359e-182
7.896219233e-179
3.911427704e-175
1.741807827e-171
7.025512914e-168
2.584392688e-164
8.659222285e-161
2.612531048e-157
6.873236163e-154
1.453748095e-150
1.242615004e-147
2.309558801e-149
2.30235503e-141
7.825286617e-148
2.200151278e-126
1.921481213e-145
3.742070494e-106
4.941696614e-112
1.296904434e-86
1.397760475e-82
7.280128627e-84
0
6.114252252e-64
8.739673772e-68
9.215311654e-54
3.452492733e-55
0
3.331938019e-07
-0.01573548601
0.7402223774
1.335892055e-223
7.271117272e-219
2.823030122e-214
7.729810987e-210
1.588643986e-205
2.563907477e-201
3.377003145e-197
3.706002453e-193
3.450620837e-189
2.777403651e-185
1.948793674e-181
1.204596788e-177
6.629135768e-174
3.2516105e-170
1.427269032e-166
5.621376505e-163
1.971468518e-159
6.062850821e-156
1.581455669e-152
3.229479419e-149
2.064329555e-146
7.364320488e-147
3.266226257e-152
2.197796128e-132
4.982727882e-128
2.357204838e-130
1.050863723e-104
5.547306734e-101
6.648087869e-87
2.312450031e-83
4.109600822e-85
2.486685952e-89
2.879147856e-65
9.256093809e-68
3.286407374e-56
3.468867509e-58
4.855870122e-80
6.951606272e-07
-0.01792957791
0.7620552838
7.125236939e-224
3.954240016e-219
1.565870851e-214
4.40230313e-210
9.337275276e-206
1.560414081e-201
2.122192701e-197
2.425097759e-193
2.346513619e-189
1.965579753e-185
1.430567099e-181
9.190512692e-178
5.20201603e-174
2.615800984e-170
1.169123572e-166
4.625758074e-163
1.612748313e-159
4.915258214e-156
1.277805737e-152
2.687961865e-149
2.431669145e-146
6.167371821e-145
4.675695283e-150
2.162495555e-132
9.619404888e-131
0
6.189606537e-107
1.537567415e-92
0
1.785518994e-82
1.295641381e-101
1.284233117e-70
1.409421403e-67
8.525624793e-68
5.24572267e-60
4.436324204e-62
3.503956119e-83
1.026184271e-06
-0.02083767321
0.7840942856
1.029306324e-224
4.674459029e-220
1.62385918e-215
4.168285209e-211
8.278787526e-207
1.326069712e-202
1.745357571e-198
1.923781241e-194
1.822085768e-190
1.485186226e-186
1.061735969e-182
6.663914176e-179
3.730102398e-175
1.85877883e-171
8.33491285e-168
3.384950476e-164
1.252226414e-160
4.280250229e-157
1.37942047e-153
4.330962783e-150
2.079202598e-146
2.816024431e-143
2.453834232e-152
3.37012137e-133
1.258533284e-134
7.205140316e-139
3.947504384e-136
7.897421946e-93
2.499668619e-96
1.765322689e-82
0
4.230972814e-71
3.873768973e-78
2.615393589e-65
6.405149065e-64
1.57169611e-64
1.242450426e-84
1.340969575e-06
-0.02349853532
0.8022103965
9.252649629e-223
2.699430427e-218
5.783717631e-214
8.976850892e-210
1.072098691e-205
1.027860549e-201
8.161993408e-198
5.482058623e-194
3.159570241e-190
1.586670927e-186
7.006472172e-183
2.746993332e-179
9.687951318e-176
3.115380185e-172
9.344685226e-169
2.700317335e-165
7.745477751e-162
2.255494573e-158
6.709752904e-155
2.155027696e-151
6.593437211e-147
2.787330842e-143
4.560128288e-150
2.980024123e-134
1.017701021e-136
2.749251488e-139
0
7.494237707e-94
0
9.771708577e-83
4.606435428e-98
1.624760495e-72
2.502673375e-78
8.879339518e-66
2.625397772e-64
3.839714503e-66
5.61250638e-90
1.644404485e-06
-0.02574853108
0.8215451173
1.850916932e-220
5.195976947e-216
1.061676178e-211
1.557337728e-207
1.741871263e-203
1.548996332e-199
1.128102948e-195
6.86689593e-192
3.54034718e-188
1.564956886e-184
5.965689409e-181
1.96789997e-177
5.634725349e-174
1.394626768e-170
2.967527101e-167
5.35175087e-164
7.978246026e-161
9.395055319e-158
7.991166675e-155
4.179156929e-152
9.913523195e-149
1.106795334e-143
4.434579843e-152
1.288837824e-135
7.982893418e-139
7.65246379e-135
6.052881653e-99
6.921214383e-96
6.66848943e-93
2.088377052e-101
2.480283425e-79
3.810990994e-75
3.77541374e-78
5.129690736e-67
5.979314596e-65
2.492977861e-67
5.110725265e-90
1.928008852e-06
-0.02767492541
0.8322430919
2.931658363e-218
7.971611561e-214
1.564647522e-209
2.186756253e-205
2.311943572e-201
1.927590881e-197
1.303671749e-193
7.298086805e-190
3.425801992e-186
1.36249285e-182
4.610421213e-179
1.329123718e-175
3.266612898e-172
6.796202361e-169
1.186345338e-165
1.709432411e-162
1.98039765e-159
1.76564206e-156
1.11699268e-153
4.076451579e-151
8.055937566e-150
6.946859036e-145
2.50026853e-150
4.025766609e-138
0
1.620952462e-121
8.313706375e-100
7.946792365e-100
1.011272298e-90
1.800927214e-110
8.394838455e-80
1.324026713e-84
1.459422909e-73
3.313613984e-69
2.824187496e-66
6.241993957e-69
3.182191084e-89
2.126862426e-06
-0.02935608874
0.8460107223
3.40082846e-216
9.047939872e-212
1.72598566e-207
2.329554816e-203
2.364654303e-199
1.882360682e-195
1.208239905e-191
6.381668636e-188
2.812125345e-184
1.04459353e-180
3.281400433e-177
8.73111334e-174
1.967742125e-170
3.725722662e-167
5.863149161e-164
7.538730624e-161
7.688563944e-158
5.95384772e-155
3.239983315e-152
1.033190136e-149
3.867987269e-148
3.905316476e-147
1.060182947e-150
0
0
4.979324977e-105
6.994661734e-103
2.57399554e-97
2.509202099e-90
0
2.562833293e-81
1.254343922e-84
6.631202864e-74
1.771013301e-72
1.442451119e-68
1.927309898e-71
2.59569802e-76
2.245480154e-06
-0.03082725948
0.8543734552
2.441497101e-214
6.402820944e-210
1.198489437e-205
1.580207996e-201
1.560104468e-197
1.202784139e-193
7.446154798e-190
3.775945619e-186
1.591848431e-182
5.635478964e-179
1.679741759e-175
4.223325519e-172
8.957007186e-169
1.586758685e-165
2.321809026e-162
2.751732452e-159
2.554438277e-156
1.763585673e-153
8.240607671e-151
2.097136025e-148
9.734207743e-147
1.499493642e-149
2.947001193e-148
0
2.672315642e-110
3.346212964e-106
3.027555232e-106
9.23225906e-97
7.730984627e-91
2.699565723e-110
4.839314652e-84
1.28910096e-84
3.170678489e-75
9.446149222e-77
4.860867147e-72
3.390740043e-75
0
2.301077426e-06
-0.03212107425
0.8625734816
8.408848661e-213
2.147357252e-208
3.924882044e-204
5.064362054e-200
4.895340947e-196
3.695230249e-192
2.240162844e-188
1.111790851e-184
4.587543528e-181
1.581942289e-177
4.576587741e-174
1.111636287e-170
2.261119834e-167
3.809364051e-164
5.237977045e-161
5.737775936e-158
4.803262035e-155
2.859789641e-152
1.043693477e-149
1.383786297e-147
2.714031089e-146
1.062745958e-147
0
2.037819944e-115
3.672507204e-111
4.923774552e-123
8.30621692e-103
4.791402269e-96
2.745568456e-92
3.421705009e-109
3.414654375e-85
9.651078878e-82
8.633435528e-78
1.397926229e-80
1.441957939e-76
6.216584349e-80
9.975110317e-87
2.306977418e-06
-0.03327496264
0.8712445344
5.05973064e-211
1.276724813e-206
2.292839974e-202
2.891058598e-198
2.71640583e-194
1.982838019e-190
1.156729879e-186
5.498854751e-183
2.164741269e-179
7.096534523e-176
1.945927063e-172
4.466271041e-169
8.569595645e-166
1.358976657e-162
1.753508641e-159
1.79356399e-156
1.388749992e-153
7.487925669e-151
2.339347093e-148
1.98510416e-146
2.184014288e-146
0
1.916425927e-120
3.787439239e-116
1.680633149e-113
4.556064445e-114
3.91872673e-101
4.179430314e-97
3.431663721e-95
1.57213902e-90
3.899597084e-86
1.423586981e-82
8.438673937e-82
1.464311176e-84
3.980838306e-81
1.222347263e-84
3.185637239e-88
2.273654307e-06
-0.03430410441
0.8776711514
3.688389912e-210
8.816493001e-206
1.512360691e-201
1.840536596e-197
1.691872168e-193
1.225501965e-189
7.207137836e-186
3.512073414e-182
1.437236682e-178
4.97790573e-175
1.462794565e-171
3.627823442e-168
7.523275658e-165
1.284536988e-161
1.76098223e-158
1.859368248e-155
1.412967454e-152
6.763316081e-150
1.359702252e-147
2.907746645e-146
2.140470145e-146
1.176052135e-125
4.709383512e-121
4.436936865e-118
3.965399983e-118
3.386466737e-106
5.357763256e-102
1.463127821e-99
9.280581165e-97
8.110315746e-91
8.311040177e-88
1.218658755e-84
1.369650639e-86
1.016067762e-88
1.031417767e-85
2.631796097e-89
0
2.209625368e-06
-0.03522368839
0.8832790801
5.264563481e-209
1.463266923e-204
2.909942418e-200
4.076820171e-196
4.263128764e-192
3.463612835e-188
2.245529388e-184
1.182479799e-180
5.122420479e-177
1.837005392e-173
5.453979916e-170
1.336862707e-166
2.684215131e-163
4.35810566e-160
5.576613427e-157
5.401813883e-154
3.693036207e-151
1.537516254e-148
2.094661058e-146
2.180812315e-146
2.21255526e-146
5.157356244e-126
9.533293337e-123
8.757822365e-123
2.736452685e-111
8.133539352e-107
4.302467026e-104
3.820428988e-104
6.292325904e-96
6.011779871e-92
1.450678416e-90
2.910902034e-88
2.139815195e-91
4.799400807e-93
2.538037013e-90
6.118590422e-94
8.127644849e-101
2.121634559e-06
-0.03604946796
0.8882299927
3.663975358e-208
9.33894128e-204
1.696527341e-199
2.164355972e-195
2.055633704e-191
1.513600802e-187
8.87624945e-184
4.220397436e-180
1.64558506e-176
5.294966212e-173
1.408601925e-169
3.090345462e-166
5.550491403e-163
8.053173304e-160
9.236475185e-157
8.08826608e-154
5.095187265e-151
2.041096048e-148
3.389074151e-146
5.637761537e-146
5.554207528e-131
2.59973719e-127
2.753156498e-136
1.077190465e-118
1.359068041e-111
1.728127758e-108
1.597686251e-108
3.301494703e-101
1.537527377e-96
3.407549662e-94
1.162223503e-94
3.368105607e-93
3.107200044e-96
1.814372608e-97
5.993953612e-95
1.466204603e-98
3.139801674e-102
2.014841114e-06
-0.03679592064
0.8926314278
2.927468639e-208
7.195667793e-204
1.267152521e-199
1.575357673e-195
1.466060576e-191
1.063873706e-187
6.187744648e-184
2.939204587e-180
1.155122144e-176
3.791096171e-173
1.046846243e-169
2.450962994e-166
4.914236262e-163
8.535262316e-160
1.287837717e-156
1.635408673e-153
1.567913484e-150
8.46694069e-148
3.755268744e-146
5.636765112e-137
7.08899562e-132
7.987064509e-130
6.73818281e-135
2.055160105e-116
6.934367381e-113
1.398881808e-111
8.884434479e-109
2.469377947e-101
3.318790355e-98
9.120767029e-98
2.450178296e-99
3.343401648e-98
4.297633103e-101
5.964056811e-102
1.371253337e-99
3.512661711e-103
4.807670718e-105
1.893090611e-06
-0.03747620635
0.8965780355
4.583612108e-209
1.303981978e-204
2.755334607e-200
4.294750051e-196
5.275535626e-192
5.346492678e-188
4.596344595e-184
3.397648072e-180
2.166224569e-176
1.186691766e-172
5.540551279e-169
2.179549876e-165
7.113218249e-162
1.884417751e-158
3.919747251e-155
6.051627676e-152
6.195155961e-149
3.035388543e-146
6.673427065e-146
3.791013104e-137
5.958239577e-134
1.505400273e-143
2.748977319e-122
2.660746283e-117
2.048885033e-115
1.827042207e-115
2.084449477e-106
1.510591454e-102
3.539938115e-101
1.93730258e-102
5.06888393e-104
2.972891412e-103
5.755429824e-106
1.77833821e-106
3.059081008e-104
8.287327429e-108
3.027402519e-109
1.759136255e-06
-0.03810249884
0.9001528514
1.380243267e-209
4.642578364e-205
1.173856548e-200
2.179084208e-196
3.127216976e-192
3.594122857e-188
3.384466495e-184
2.649742843e-180
1.740255474e-176
9.63141511e-173
4.494882911e-169
1.762887685e-165
5.762213381e-162
1.545824014e-158
3.314243675e-155
5.414589968e-152
6.126810212e-149
3.741254623e-146
1.527938985e-142
1.318457273e-138
2.107311416e-137
6.783589126e-140
1.315134502e-122
1.966143026e-119
7.061383122e-132
9.044673391e-112
3.518543893e-107
4.337320988e-105
1.224323251e-105
3.835971836e-107
1.043068108e-108
2.516605157e-108
7.544311004e-111
4.919244092e-111
6.676426578e-109
1.912493762e-112
5.79608125e-114
1.614764522e-06
-0.0386861292
0.9034300083
1.926182954e-209
4.060172229e-205
6.210627448e-201
6.855848842e-197
5.89829643e-193
4.252987014e-189
2.758372813e-185
1.699862794e-181
1.01107416e-177
5.67063422e-174
2.891242159e-170
1.300003865e-166
5.043880115e-163
1.65837046e-159
4.527694537e-156
9.9739934e-153
1.691380738e-149
2.010648662e-146
2.238742719e-143
1.856410919e-141
1.607322888e-141
4.259660867e-129
1.96171586e-124
4.449522931e-123
8.802396456e-126
5.301900017e-112
4.228051867e-109
4.167743766e-109
1.895549564e-110
7.089968513e-112
2.136679284e-113
2.258528206e-113
9.700101229e-116
1.277781127e-115
1.425387813e-113
4.300363676e-117
1.046276025e-118
1.460905903e-06
-0.03923803477
0.90647752
2.145358752e-209
4.420077e-205
6.55233551e-201
6.875876245e-197
5.40857806e-193
3.318261863e-189
1.630570248e-185
6.534905229e-182
2.163979843e-178
5.98683967e-175
1.404438272e-171
2.883651473e-168
5.585439453e-165
1.161127177e-161
2.814629544e-158
7.361538843e-155
1.824017883e-151
3.990950907e-148
2.216808757e-145
7.314887707e-146
1.390584588e-134
2.978712471e-130
5.693573321e-128
4.438904894e-128
3.419592619e-118
1.064577688e-113
2.07431125e-112
7.176858656e-114
3.001301168e-115
1.23677255e-116
4.303846597e-118
2.290461857e-118
1.225762239e-120
3.13554082e-120
2.969475402e-118
9.408308894e-122
3.697292673e-120
1.297678991e-06
-0.03976943411
0.9093603724
1.999512726e-209
3.601199669e-205
5.277827398e-201
6.030143219e-197
5.505359521e-193
4.074925797e-189
2.472067608e-185
1.240493015e-181
5.186125821e-178
1.814858913e-174
5.3255197e-171
1.308243843e-167
2.674788639e-164
4.499951248e-161
6.109149791e-158
6.480260475e-155
5.08421396e-152
2.666464644e-149
7.464130075e-147
3.976762732e-146
2.344302236e-135
1.18850263e-132
1.999242878e-144
2.32629623e-123
2.502846333e-119
4.199356772e-117
3.540776087e-117
1.293378215e-118
4.820118503e-120
2.057755931e-121
8.429782916e-123
2.590859037e-123
1.530953807e-125
7.293683511e-125
6.01530397e-123
1.968396832e-126
0
1.124353606e-06
-0.04029327637
0.9121458516
3.116335387e-209
3.831294024e-205
3.540569907e-201
2.506115025e-197
1.500435576e-193
8.127414999e-190
4.061083739e-186
1.841958128e-182
7.402148808e-179
2.591823253e-175
7.843876076e-172
2.046515953e-168
4.606730295e-165
8.989481034e-162
1.539225041e-158
2.360846503e-155
3.287346107e-152
3.984996965e-149
3.322819368e-146
4.478026754e-142
1.244115447e-137
1.619668295e-136
7.896528702e-144
4.344907301e-124
1.45613643e-121
4.290890052e-122
5.288085616e-122
2.321550709e-123
7.822373334e-125
3.30885193e-126
1.596683154e-127
3.098734587e-128
1.908580714e-130
1.612431942e-129
1.18085205e-127
0
0
9.391742746e-07
-0.04082703109
0.9149129953
2.234122505e-208
3.069457214e-204
3.02718813e-200
2.108779094e-196
1.098808065e-192
4.456283147e-189
1.444494665e-185
3.810738392e-182
8.287665792e-179
1.501641292e-175
2.296406725e-172
3.04255419e-169
3.716627561e-166
4.723485903e-163
7.075202933e-160
1.251863021e-156
2.38170555e-153
4.450290027e-150
7.610806974e-147
1.266772888e-143
1.024070976e-141
7.673952724e-142
1.049655401e-130
2.784736747e-126
4.00774476e-125
5.231170474e-127
6.938353693e-127
4.045733892e-128
1.284239573e-129
5.212268216e-131
2.92512168e-132
3.853697806e-133
2.450981113e-135
2.988050515e-134
0
0
0
7.389552425e-07
-0.04139912167
0.9177472777
2.363361483e-208
3.229101072e-204
3.163502425e-200
2.187255049e-196
1.130458032e-192
4.545207774e-189
1.459913025e-185
3.81322143e-182
8.194806328e-179
1.459534045e-175
2.162306539e-172
2.66637009e-169
2.730892636e-166
2.31269032e-163
1.61005824e-160
9.186832447e-158
4.369863495e-155
1.971273995e-152
1.508594472e-149
9.333707672e-147
3.688531392e-146
5.776595126e-137
2.604533066e-132
3.014583203e-130
6.3475592e-130
9.189450832e-132
8.112200034e-132
6.754566791e-133
2.125033247e-134
7.98659054e-136
5.204960602e-137
4.590884597e-137
3.377760428e-136
5.943771374e-131
3.721447554e-128
1.727785702e-124
2.527438842e-118
5.155550257e-07
-0.04201214347
0.9184599139
2.393638763e-209
3.375963698e-205
3.431149026e-201
2.476401655e-197
1.346747902e-193
5.758566416e-190
1.996393238e-186
5.749879046e-183
1.406280826e-179
2.986013705e-176
5.631825767e-173
9.630095441e-170
1.509550081e-166
2.158895334e-163
2.758737127e-160
3.050222172e-157
2.801908199e-154
2.022642258e-151
1.040081451e-148
2.943121608e-146
4.086487559e-143
8.663867095e-138
1.902584905e-135
2.404195328e-135
7.919818789e-135
3.701918837e-136
3.277105797e-136
2.370762024e-135
3.682893146e-134
1.551420663e-133
1.795636138e-132
3.653324087e-131
1.094626238e-129
7.107804634e-127
9.624762508e-123
5.582508744e-119
6.654507215e-116
2.647540498e-07
-0.04267472427
0.919560395
1.175376273e-211
1.978971521e-207
2.420630743e-203
2.122458548e-199
1.418286164e-195
7.556618566e-192
3.32089358e-188
1.238074724e-184
4.025697465e-181
1.183311819e-177
3.318643476e-174
9.449432803e-171
2.778265836e-167
7.92236647e-164
1.98985335e-160
4.057219738e-157
6.31159877e-154
7.010635795e-151
4.871478e-148
1.17596945e-145
8.926973981e-143
5.522227801e-140
6.576406693e-140
8.120345816e-136
1.573648453e-131
1.71236905e-130
4.074656125e-131
1.948482766e-129
2.620077352e-128
9.331686965e-128
2.44316383e-126
5.729902197e-125
2.517799128e-123
1.071498251e-121
6.503612835e-119
1.627623009e-116
0
-2.183947417e-08
-0.04344252207
0.9233927687
2.454166595e-215
6.375827518e-211
1.542367097e-206
4.273785896e-202
1.399599226e-197
4.135690616e-193
9.358404107e-189
1.565070541e-184
1.949176953e-180
1.837523308e-176
1.33141432e-172
7.501419704e-169
3.307129262e-165
1.139882957e-161
3.049525893e-158
6.261750886e-155
9.597805121e-152
1.009726055e-148
6.61439427e-146
8.849121361e-141
6.191942035e-139
2.621470433e-137
1.255669089e-136
1.106071676e-136
5.235382848e-129
7.673202323e-126
2.929562773e-125
1.511272528e-123
1.611061824e-122
5.561374762e-122
3.176292033e-120
2.822200833e-118
4.452971264e-117
7.126757934e-116
5.634289999e-117
0
0
-3.494065885e-07
-0.04437926166
0.9273931736
3.667057156e-213
9.217070107e-209
1.843991764e-204
3.249968604e-200
5.782974483e-196
9.859206546e-192
1.425792694e-187
1.640088175e-183
1.476681759e-179
1.042618231e-175
5.804448478e-172
2.558174207e-168
8.929188155e-165
2.456177726e-161
5.258171672e-158
8.554787703e-155
1.010918965e-151
7.848395567e-149
3.030023591e-146
1.621498742e-138
1.099092554e-133
7.114775447e-132
5.896361316e-131
1.552692934e-130
1.350466565e-130
1.255405781e-123
2.229576007e-119
8.832131629e-118
8.086590685e-117
1.312656019e-107
1.136297023e-112
3.663746802e-112
6.910166449e-111
5.12224345e-110
0
0
0
-7.468897625e-07
-0.04544410219
0.9528628446
1.057443285e-210
2.409149212e-206
4.05192474e-202
4.980836137e-198
4.759034122e-194
3.681559141e-190
2.361512633e-186
1.27115082e-182
5.765981324e-179
2.202700884e-175
7.061569397e-172
1.889032438e-168
4.183627541e-165
7.588061199e-162
1.109834456e-158
1.279494015e-155
1.121731859e-152
6.996190372e-150
2.694320514e-147
3.075448601e-146
4.850125336e-131
1.446273941e-126
3.247799534e-125
8.333842973e-125
3.102814542e-124
2.412828462e-124
6.047230011e-115
3.830336493e-112
4.764505851e-105
2.432618986e-104
7.28089562e-107
2.643551512e-105
7.843188589e-105
3.108690194e-104
4.593112946e-105
0
5.447846893e-94
-1.228121156e-06
-0.04653578923
0.9381996651
1.373710109e-208
2.667232605e-204
3.690311268e-200
3.581316171e-196
2.582318335e-192
1.439832461e-188
6.375233069e-185
2.281842197e-181
6.679923818e-178
1.611165361e-174
3.215482425e-171
5.327632135e-168
7.395787056e-165
8.966815278e-162
1.112151794e-158
1.886652358e-155
4.406447757e-152
1.200370807e-148
2.878104393e-145
6.850019027e-142
4.815065213e-142
4.589400171e-124
3.646625335e-120
3.160720738e-119
9.123206069e-118
1.723476549e-117
7.755881854e-113
2.079800211e-105
2.411837627e-102
1.672580909e-102
7.213780244e-100
3.095643351e-99
8.794221671e-99
1.635199537e-98
2.289731168e-99
7.510306413e-109
3.000840246e-89
-1.80769666e-06
-0.04792616809
0.9259598401
5.483862626e-209
8.354813378e-205
9.174847538e-201
7.199719676e-197
4.346555791e-193
2.175117693e-189
9.835336905e-186
4.355757614e-182
1.930484195e-178
8.150839938e-175
3.068737097e-171
9.837409989e-168
2.613454176e-164
5.645955436e-161
9.721075344e-158
1.297029368e-154
1.281528336e-151
8.512643106e-149
2.877984238e-146
6.667194293e-139
2.555352143e-136
2.599725347e-136
6.582949343e-118
5.04026956e-113
7.056970518e-112
4.834439768e-111
3.643951987e-110
2.432667638e-110
6.738770877e-103
1.311246599e-95
5.137974988e-94
4.079098467e-93
8.069690678e-93
7.980407727e-93
8.897726562e-94
1.184211967e-103
1.715465362e-84
-2.501210943e-06
-0.04946605597
0.9555206038
2.956549682e-210
4.353456742e-206
4.672589594e-202
3.660594893e-198
2.279347334e-194
1.214497539e-190
5.827831971e-187
2.560320052e-183
1.017793443e-179
3.59740924e-176
1.125844344e-172
3.201959837e-169
9.101795885e-166
3.018503931e-162
1.088527708e-158
3.13183097e-155
7.125716993e-152
1.381040336e-148
2.842788453e-146
5.518391736e-146
3.439205835e-132
1.181022692e-130
0
1.972135177e-110
4.176401471e-106
1.054550793e-104
8.752728177e-104
1.959572917e-103
1.443745796e-103
3.807599945e-93
1.448971836e-88
3.463444599e-87
6.377972695e-87
3.606354229e-87
2.822557621e-88
2.161939211e-99
1.01261052e-79
-3.352385001e-06
-0.0510762175
0.9711211464
5.082925135e-212
7.268909905e-208
7.642025928e-204
6.043848229e-200
4.828694871e-196
7.520038329e-192
1.744129026e-187
3.274627284e-183
4.478255823e-179
4.655698573e-175
4.011423718e-171
3.208424452e-167
2.410751991e-163
1.455747565e-159
6.094248478e-156
2.168160999e-152
8.79119181e-149
2.438275472e-145
2.559801061e-141
5.31687171e-146
5.157901123e-145
3.222839714e-125
2.909292354e-121
1.908408553e-121
4.261323087e-103
9.87707889e-99
1.72963957e-97
2.135978277e-97
2.540216343e-90
2.489563673e-93
5.181876356e-86
3.856169668e-82
4.141508983e-81
1.476333024e-81
7.915861741e-83
3.656671596e-81
1.579597121e-75
-4.354237084e-06
-0.05263893145
0.96608162
3.052041655e-210
4.701567397e-206
5.587969199e-202
8.154898006e-198
2.584030539e-193
8.304071389e-189
1.842025184e-184
2.768682693e-180
2.901931568e-176
2.182746318e-172
1.207457266e-168
5.005601161e-165
1.569296592e-161
3.706038799e-158
6.493478853e-155
8.200816038e-152
6.865799689e-149
2.874044876e-146
6.458400334e-138
1.368793209e-134
0
3.597844023e-123
2.241396324e-118
1.181248539e-115
0
6.015491334e-96
2.103630946e-92
1.720858856e-90
5.916331812e-87
2.619281847e-88
1.74781041e-88
9.839010052e-80
1.320628484e-76
5.063937653e-76
2.77601472e-77
4.467625458e-75
2.585235903e-73
-5.501572107e-06
-0.05427393902
0.9707694406
3.034165894e-209
4.444932007e-205
5.35452276e-201
5.599839616e-197
5.546662292e-193
5.106330978e-189
4.093578381e-185