/*--------------------------------*- C++ -*----------------------------------*\
| =========                 |                                                 |
| \\      /  F ield         | OpenFOAM: The Open Source CFD Toolbox           |
|  \\    /   O peration     | Version:  v1912                                 |
|   \\  /    A nd           | Website:  www.openfoam.com                      |
|    \\/     M anipulation  |                                                 |
\*---------------------------------------------------------------------------*/
FoamFile
{
    version     2.0;
    format      ascii;
    class       volScalarField;
    location    "0.2";
    object      k.gas;
}
// * * * * * * * * * * * * * * * * * * * * * * * * * * * * * * * * * * * * * //

dimensions      [0 2 -2 0 0 0 0];


internalField   nonuniform List<scalar> 
4800
(
2.500299615e-07
2.754507166e-07
2.844515928e-07
2.895034126e-07
2.92882338e-07
2.953658251e-07
2.973046841e-07
2.988845164e-07
3.002145913e-07
3.013645452e-07
3.023816948e-07
3.033000233e-07
3.041453003e-07
3.049381249e-07
3.056959558e-07
3.064345027e-07
3.071688283e-07
3.079142755e-07
3.086873922e-07
3.09506925e-07
3.103950087e-07
3.113786867e-07
3.124919397e-07
3.137785248e-07
3.152960558e-07
3.171219793e-07
3.19362678e-07
3.221676431e-07
3.257522548e-07
3.304357655e-07
3.367072222e-07
3.453455185e-07
3.576509867e-07
3.759241959e-07
4.045471834e-07
4.52497893e-07
5.465498482e-07
6.80929447e-07
9.384076267e-07
6.032524666e-06
7.336903022e-07
8.319928075e-07
8.678717004e-07
8.881307524e-07
9.016476729e-07
9.115109765e-07
9.191270583e-07
9.252427682e-07
9.302972276e-07
9.345681661e-07
9.382411796e-07
9.414458054e-07
9.442756599e-07
9.468004398e-07
9.490733285e-07
9.511358439e-07
9.530210516e-07
9.547558291e-07
9.563624646e-07
9.578598566e-07
9.592644531e-07
9.605910261e-07
9.618533837e-07
9.630651124e-07
9.642403738e-07
9.653950509e-07
9.66548297e-07
9.677250027e-07
9.689598922e-07
9.703046832e-07
9.718414316e-07
9.737087337e-07
9.761567382e-07
9.79671266e-07
9.852918716e-07
9.94726785e-07
1.039691377e-06
5.220415839e-07
6.874212062e-06
5.914149479e-05
6.940002767e-07
7.8555931e-07
8.189573883e-07
8.378326282e-07
8.504415307e-07
8.596536538e-07
8.667750731e-07
8.724991846e-07
8.772335962e-07
8.812360401e-07
8.846786948e-07
8.87681639e-07
8.903315657e-07
8.926928801e-07
8.948146014e-07
8.967348073e-07
8.984836231e-07
9.000852747e-07
9.01559545e-07
9.029228382e-07
9.041889846e-07
9.053698761e-07
9.06476013e-07
9.075169845e-07
9.085020348e-07
9.094406961e-07
9.103437411e-07
9.112246452e-07
9.121021037e-07
9.130045766e-07
9.139789221e-07
9.151077508e-07
9.165460322e-07
9.186028415e-07
9.21943702e-07
9.274650638e-07
9.639526194e-07
4.970342957e-07
4.074756645e-06
8.69613271e-05
6.96185078e-07
7.880919323e-07
8.21613205e-07
8.405553154e-07
8.532070176e-07
8.624492104e-07
8.695931185e-07
8.753348623e-07
8.800836476e-07
8.840982183e-07
8.875514284e-07
8.90563832e-07
8.932224797e-07
8.955920547e-07
8.977217973e-07
8.996499835e-07
9.014069173e-07
9.030169977e-07
9.045001871e-07
9.058730823e-07
9.071497294e-07
9.083422691e-07
9.094614867e-07
9.10517327e-07
9.115194448e-07
9.124778784e-07
9.1340399e-07
9.143119156e-07
9.152209686e-07
9.161598603e-07
9.171744616e-07
9.183427083e-07
9.1980445e-07
9.218237018e-07
9.249262664e-07
9.299413701e-07
9.563214143e-07
3.702646202e-07
1.130941402e-05
0.0001034286507
6.960248099e-07
7.879094651e-07
8.214221186e-07
8.403593271e-07
8.530075324e-07
8.622468995e-07
8.693883134e-07
8.751277094e-07
8.798741804e-07
8.838863936e-07
8.87337145e-07
8.903469428e-07
8.930027944e-07
8.953693422e-07
8.974957839e-07
8.99420348e-07
9.011732846e-07
9.027789288e-07
9.042571646e-07
9.056244912e-07
9.068948296e-07
9.080801575e-07
9.09191042e-07
9.102371299e-07
9.112276539e-07
9.12172038e-07
9.130807154e-07
9.139663566e-07
9.14845859e-07
9.157437397e-07
9.166981705e-07
9.177720919e-07
9.190742903e-07
9.208003834e-07
9.233143308e-07
9.272784062e-07
9.383484943e-07
5.800322277e-07
1.966733838e-05
0.0001110172973
6.9600686e-07
7.878920545e-07
8.214041722e-07
8.403409756e-07
8.529886409e-07
8.622273358e-07
8.693679397e-07
8.751063812e-07
8.798517445e-07
8.838626875e-07
8.873119949e-07
8.903201608e-07
8.929741765e-07
8.953386649e-07
8.974627997e-07
8.993847804e-07
9.011348217e-07
9.027372141e-07
9.042117848e-07
9.055749606e-07
9.068405673e-07
9.080204555e-07
9.091250187e-07
9.1016366e-07
9.111452599e-07
9.120787176e-07
9.129736566e-07
9.138414486e-07
9.146968196e-07
9.155604963e-07
9.164637272e-07
9.174562105e-07
9.186202453e-07
9.200962042e-07
9.221285446e-07
9.251255518e-07
9.313578138e-07
8.850953128e-07
8.555934708e-06
0.0001141983244
6.959811436e-07
7.87865648e-07
8.213766843e-07
8.403128089e-07
8.529597568e-07
8.621976554e-07
8.69337358e-07
8.750747756e-07
8.798189782e-07
8.838286103e-07
8.872764431e-07
8.902829558e-07
8.929351224e-07
8.952975464e-07
8.97419378e-07
8.993387883e-07
9.010859573e-07
9.026851327e-07
9.041560869e-07
9.055151762e-07
9.067761343e-07
9.079506884e-07
9.090490625e-07
9.100804214e-07
9.110533015e-07
9.119760885e-07
9.128576161e-07
9.137079988e-07
9.145398865e-07
9.153704506e-07
9.162246237e-07
9.17140478e-07
9.18178199e-07
9.194349061e-07
9.210685326e-07
9.23318415e-07
9.280678281e-07
8.433985594e-07
9.499421313e-06
0.0001163347861
6.959567368e-07
7.878407574e-07
8.213506898e-07
8.402861527e-07
8.529323997e-07
8.621695218e-07
8.69308347e-07
8.7504477e-07
8.797878469e-07
8.837962095e-07
8.872426168e-07
8.902475337e-07
8.928979186e-07
8.952583569e-07
8.973779777e-07
8.992949257e-07
9.010393496e-07
9.026354573e-07
9.041029712e-07
9.054581833e-07
9.067147421e-07
9.078842609e-07
9.089768067e-07
9.100013233e-07
9.109660274e-07
9.118788292e-07
9.127478338e-07
9.135820064e-07
9.14392127e-07
9.151922327e-07
9.160018502e-07
9.168494806e-07
9.177779923e-07
9.188526757e-07
9.201724462e-07
9.218742894e-07
9.252644907e-07
8.40617104e-07
1.117771536e-05
0.0001180316274
6.959331899e-07
7.878168536e-07
8.213256371e-07
8.402604426e-07
8.529059984e-07
8.621423597e-07
8.692803297e-07
8.750157866e-07
8.797577732e-07
8.837649096e-07
8.872099427e-07
8.902133251e-07
8.928620006e-07
8.952205382e-07
8.97338048e-07
8.992526514e-07
9.009944686e-07
9.025876724e-07
9.040519401e-07
9.054035062e-07
9.066559428e-07
9.078207609e-07
9.089078863e-07
9.099260637e-07
9.108832225e-07
9.117868468e-07
9.12644394e-07
9.134638193e-07
9.142542882e-07
9.150271939e-07
9.157976444e-07
9.165866237e-07
9.174240588e-07
9.183528661e-07
9.194334887e-07
9.207433575e-07
9.230969048e-07
8.509259336e-07
1.271790001e-05
0.0001190377996
6.95910621e-07
7.877940646e-07
8.213016653e-07
8.402358237e-07
8.528807029e-07
8.621163242e-07
8.69253466e-07
8.749879906e-07
8.797289284e-07
8.83734888e-07
8.871786057e-07
8.901805226e-07
8.9282757e-07
8.95184302e-07
8.972998122e-07
8.992122017e-07
9.009515659e-07
9.025420469e-07
9.040032832e-07
9.05351459e-07
9.066000802e-07
9.077605683e-07
9.08842726e-07
9.098551242e-07
9.108054423e-07
9.117007953e-07
9.125480848e-07
9.133544105e-07
9.141275956e-07
9.148768905e-07
9.156139341e-07
9.163540413e-07
9.171178484e-07
9.179331474e-07
9.188362407e-07
9.198713932e-07
9.214675042e-07
8.666510999e-07
1.403557195e-05
0.0001194167741
6.958891101e-07
7.877724749e-07
8.21278868e-07
8.40212394e-07
8.528566154e-07
8.620915217e-07
8.692278668e-07
8.749614974e-07
8.797014326e-07
8.837062704e-07
8.871487372e-07
8.901492645e-07
8.927947722e-07
8.951498021e-07
8.972634333e-07
8.991737499e-07
9.009108264e-07
9.024987791e-07
9.039572139e-07
9.053022726e-07
9.065474053e-07
9.07703958e-07
9.087816296e-07
9.097888438e-07
9.107330691e-07
9.116211117e-07
9.124594112e-07
9.132543675e-07
9.140127269e-07
9.147420636e-07
9.1545139e-07
9.161518979e-07
9.168577881e-07
9.175869838e-07
9.183611625e-07
9.192070647e-07
9.202332221e-07
8.830589437e-07
1.51170566e-05
0.0001198916371
6.958687359e-07
7.877521663e-07
8.212573364e-07
8.401902494e-07
8.528338361e-07
8.62068056e-07
8.692036399e-07
8.749364193e-07
8.796754024e-07
8.83679178e-07
8.871204639e-07
8.901196828e-07
8.927637454e-07
8.951171831e-07
8.972290631e-07
8.991374557e-07
9.008724182e-07
9.024580465e-07
9.039139196e-07
9.052561455e-07
9.064981287e-07
9.076511539e-07
9.08724835e-07
9.097274756e-07
9.106663723e-07
9.115480805e-07
9.123786692e-07
9.131639841e-07
9.139099359e-07
9.146228318e-07
9.153097614e-07
9.159790176e-07
9.166404918e-07
9.173058835e-07
9.179883386e-07
9.187063301e-07
9.192551491e-07
8.975374589e-07
1.602275195e-05
0.0001208629852
6.958495728e-07
7.877332154e-07
8.212371569e-07
8.401694805e-07
8.528124595e-07
8.620460256e-07
8.691808873e-07
8.749128617e-07
8.796509472e-07
8.836537245e-07
8.870939035e-07
8.900918998e-07
8.927346167e-07
8.95086577e-07
8.971968388e-07
8.991034615e-07
9.008364893e-07
9.024200021e-07
9.038735588e-07
9.052132408e-07
9.064524177e-07
9.076023258e-07
9.086725127e-07
9.096711874e-07
9.106055112e-07
9.11481843e-07
9.123059643e-07
9.130832963e-07
9.138191228e-07
9.145188241e-07
9.15188129e-07
9.158333585e-07
9.164616137e-07
9.170808029e-07
9.176992973e-07
9.183324367e-07
9.184139521e-07
9.092583153e-07
1.677626061e-05
0.0001213979346
6.958316917e-07
7.877156935e-07
8.212184109e-07
8.401501728e-07
8.527925746e-07
8.620255228e-07
8.691597045e-07
8.748909235e-07
8.796281692e-07
8.836300151e-07
8.870691648e-07
8.900660278e-07
8.927075016e-07
8.950581028e-07
8.971668824e-07
8.990718922e-07
9.008031669e-07
9.02384775e-07
9.03836261e-07
9.05173687e-07
9.064103973e-07
9.075575924e-07
9.086247701e-07
9.096200685e-07
9.105505464e-07
9.114224148e-07
9.122412397e-07
9.130121289e-07
9.137399117e-07
9.144293137e-07
9.150851328e-07
9.15712395e-07
9.163164573e-07
9.169030044e-07
9.174778731e-07
9.180558412e-07
9.176161837e-07
9.177910297e-07
1.745428202e-05
0.0001220645047
6.958151593e-07
7.876996664e-07
8.212011744e-07
8.401324062e-07
8.527742647e-07
8.620066338e-07
8.691401806e-07
8.748706966e-07
8.796071628e-07
8.836081469e-07
8.870463473e-07
8.900421687e-07
8.926825043e-07
8.950318663e-07
8.971393012e-07
8.990428555e-07
9.007725583e-07
9.023524707e-07
9.03802128e-07
9.051375799e-07
9.063721536e-07
9.075170251e-07
9.085816576e-07
9.095741384e-07
9.105014528e-07
9.113697051e-07
9.12184307e-07
9.129501433e-07
9.136717264e-07
9.143533368e-07
9.149991593e-07
9.156134022e-07
9.162003764e-07
9.167645194e-07
9.17310439e-07
9.178534081e-07
9.167900962e-07
9.232018611e-07
1.818883557e-05
0.0001225037685
6.95800038e-07
7.876851944e-07
8.211855182e-07
8.401162546e-07
8.527576069e-07
8.619894383e-07
8.691223977e-07
8.748522652e-07
8.795880146e-07
8.835882085e-07
8.870255413e-07
8.90020414e-07
8.926597171e-07
8.950079603e-07
8.971141874e-07
8.990164424e-07
9.007447516e-07
9.023231725e-07
9.037712359e-07
9.051049848e-07
9.063377369e-07
9.074806532e-07
9.08543175e-07
9.095333566e-07
9.104581338e-07
9.113235381e-07
9.12134876e-07
9.128968817e-07
9.136138564e-07
9.142897913e-07
9.149284856e-07
9.155336554e-07
9.16109016e-07
9.16658347e-07
9.171857793e-07
9.177072826e-07
9.158843925e-07
9.249721521e-07
1.878958493e-05
0.0001229802407
6.957863865e-07
7.876723321e-07
8.211715071e-07
8.401017862e-07
8.527426719e-07
8.619740095e-07
8.69106431e-07
8.748357065e-07
8.795708033e-07
8.835702798e-07
8.870068274e-07
8.90000845e-07
8.926392212e-07
8.949864649e-07
8.970916192e-07
8.989927277e-07
9.007198165e-07
9.022969427e-07
9.037436366e-07
9.050759394e-07
9.063071654e-07
9.07448469e-07
9.085092798e-07
9.094976336e-07
9.104204358e-07
9.112836727e-07
9.120925841e-07
9.128518083e-07
9.135655141e-07
9.142375158e-07
9.148713842e-07
9.154705581e-07
9.160384382e-07
9.165784891e-07
9.170948059e-07
9.176038178e-07
9.148579988e-07
9.235103193e-07
1.928538858e-05
0.0001233677107
6.957742608e-07
7.876611274e-07
8.211592008e-07
8.400890631e-07
8.527295243e-07
8.619604141e-07
8.690923488e-07
8.7482109e-07
8.795555994e-07
8.835544321e-07
8.869902772e-07
8.899835325e-07
8.926210865e-07
8.94967448e-07
8.970716611e-07
8.98971771e-07
9.006978056e-07
9.022738245e-07
9.037193605e-07
9.05050457e-07
9.0628043e-07
9.074204338e-07
9.084798945e-07
9.094668405e-07
9.103881625e-07
9.112498217e-07
9.120570205e-07
9.12814342e-07
9.135258792e-07
9.141953474e-07
9.14826194e-07
9.154217172e-07
9.15985172e-07
9.165198973e-07
9.170302284e-07
9.175325808e-07
9.136765162e-07
9.196412261e-07
1.970156512e-05
0.0001237293277
6.957637125e-07
7.876516225e-07
8.211486527e-07
8.400781413e-07
8.527182222e-07
8.619487117e-07
8.690802122e-07
8.748084779e-07
8.795424656e-07
8.835407279e-07
8.869759528e-07
8.89968538e-07
8.926053721e-07
8.949509658e-07
8.97054365e-07
8.989536179e-07
9.006787564e-07
9.022538442e-07
9.036984192e-07
9.050285302e-07
9.062574987e-07
9.073964838e-07
9.084549143e-07
9.094408196e-07
9.10361087e-07
9.112216681e-07
9.120277483e-07
9.12783885e-07
9.134941339e-07
9.141621636e-07
9.147913658e-07
9.153849811e-07
9.159462146e-07
9.16478377e-07
9.16986242e-07
9.174855995e-07
9.123134507e-07
9.163479831e-07
2.005488958e-05
0.0001240402297
6.957547906e-07
7.876438532e-07
8.211399111e-07
8.400690708e-07
8.527088173e-07
8.619389556e-07
8.690700755e-07
8.747979247e-07
8.795314565e-07
8.835292218e-07
8.869639079e-07
8.89955913e-07
8.925921273e-07
8.949370635e-07
8.970397709e-07
8.989383016e-07
9.006626924e-07
9.02237013e-07
9.036808083e-07
9.050101345e-07
9.062383212e-07
9.073765359e-07
9.084342148e-07
9.094193936e-07
9.103389645e-07
9.111988799e-07
9.120043231e-07
9.127598446e-07
9.134694888e-07
9.141369109e-07
9.14765488e-07
9.153584507e-07
9.159190045e-07
9.164504765e-07
9.16958253e-07
9.174568502e-07
9.108279942e-07
9.14120439e-07
2.035685582e-05
0.0001243096867
6.957475428e-07
7.876378477e-07
8.211330182e-07
8.400618954e-07
8.52701355e-07
8.619311921e-07
8.690619855e-07
8.747894778e-07
8.795226194e-07
8.8351996e-07
8.869541874e-07
8.899457006e-07
8.925813918e-07
8.949257768e-07
8.970279084e-07
8.989258437e-07
9.006496253e-07
9.0222333e-07
9.036665105e-07
9.04995232e-07
9.062228337e-07
9.073604938e-07
9.084176588e-07
9.094023742e-07
9.10321542e-07
9.111811229e-07
9.119863067e-07
9.127416497e-07
9.134512006e-07
9.14118621e-07
9.147472972e-07
9.153404744e-07
9.159013811e-07
9.164333771e-07
9.169426442e-07
9.174415934e-07
9.094762387e-07
9.124757429e-07
2.061744367e-05
0.0001245590222
6.957420133e-07
7.876336283e-07
8.211280111e-07
8.40056653e-07
8.526958744e-07
8.61925461e-07
8.690559825e-07
8.747831772e-07
8.795159938e-07
8.835129813e-07
8.869468282e-07
8.899379351e-07
8.925731967e-07
8.949171317e-07
8.970187976e-07
8.989162565e-07
9.006395573e-07
9.022127841e-07
9.036554983e-07
9.049837749e-07
9.062109631e-07
9.073482527e-07
9.084051023e-07
9.093895691e-07
9.103085676e-07
9.111680705e-07
9.119732793e-07
9.127287633e-07
9.134385842e-07
9.141064208e-07
9.147356802e-07
9.153296331e-07
9.158915386e-07
9.164247911e-07
9.169365733e-07
9.174356127e-07
9.082678916e-07
9.112311208e-07
2.084421728e-05
0.000124751781
6.957382493e-07
7.876312081e-07
8.211249211e-07
8.400533753e-07
8.52692408e-07
8.619217955e-07
8.690521e-07
8.747790563e-07
8.795116123e-07
8.83508317e-07
8.869418599e-07
8.899326435e-07
8.92567565e-07
8.949111469e-07
8.970124507e-07
8.98909544e-07
9.006324821e-07
9.022053566e-07
9.036477373e-07
9.049757088e-07
9.062026309e-07
9.073397045e-07
9.083964007e-07
9.093807892e-07
9.102997974e-07
9.11159412e-07
9.11964848e-07
9.127206911e-07
9.134310202e-07
9.140995353e-07
9.147296688e-07
9.153247205e-07
9.158879792e-07
9.164228704e-07
9.16937648e-07
9.174362806e-07
9.071830392e-07
9.102729277e-07
2.104232719e-05
0.0001249074219
6.957362988e-07
7.876305925e-07
8.211237749e-07
8.400520884e-07
8.526909826e-07
8.619202227e-07
8.690503648e-07
8.747771417e-07
8.795095008e-07
8.835059916e-07
8.86939305e-07
8.899298455e-07
8.925645131e-07
8.949078336e-07
8.97008873e-07
8.98905704e-07
9.006283879e-07
9.022010234e-07
9.036431884e-07
9.049709764e-07
9.061977571e-07
9.07334742e-07
9.083914136e-07
9.093758537e-07
9.102950022e-07
9.11154859e-07
9.119606532e-07
9.127169869e-07
9.134279576e-07
9.140972865e-07
9.147284319e-07
9.153247214e-07
9.158894699e-07
9.164261278e-07
9.169440108e-07
9.174417726e-07
9.062036842e-07
9.095207241e-07
2.121625271e-05
0.0001250472268
6.95736213e-07
7.876317777e-07
8.211245938e-07
8.400528126e-07
8.526916189e-07
8.619207633e-07
8.690507977e-07
8.747774535e-07
8.795096785e-07
8.835060229e-07
8.869391794e-07
8.899295545e-07
8.925640507e-07
8.949071973e-07
8.970080641e-07
8.989047286e-07
9.006272578e-07
9.021997566e-07
9.0364181e-07
9.049695194e-07
9.061962631e-07
9.073332619e-07
9.083900084e-07
9.093745945e-07
9.102939709e-07
9.111541496e-07
9.119603722e-07
9.127172557e-07
9.134289148e-07
9.140990907e-07
9.147312645e-07
9.153287891e-07
9.158950008e-07
9.164333699e-07
9.169542603e-07
9.174506412e-07
9.053137131e-07
9.089178625e-07
2.136989772e-05
0.0001251733795
6.957379539e-07
7.876348005e-07
8.211273868e-07
8.400555612e-07
8.526943311e-07
8.619234318e-07
8.69053413e-07
8.747800054e-07
8.79512158e-07
8.835084224e-07
8.869414926e-07
8.899317772e-07
8.925661814e-07
8.949092372e-07
8.970100181e-07
8.989066057e-07
9.006290716e-07
9.022015259e-07
9.036435597e-07
9.049712805e-07
9.061980738e-07
9.073351678e-07
9.083920627e-07
9.093768586e-07
9.102965144e-07
9.111570517e-07
9.11963722e-07
9.127211546e-07
9.134334785e-07
9.14104452e-07
9.147375759e-07
9.153362251e-07
9.159037527e-07
9.164436478e-07
9.169673089e-07
9.174617701e-07
9.044986437e-07
9.084234999e-07
2.150659818e-05
0.0001252870355
6.957414281e-07
7.87639718e-07
8.211321525e-07
8.400603406e-07
8.52699127e-07
8.619282364e-07
8.690582184e-07
8.747848048e-07
8.795169459e-07
8.83513195e-07
8.869462478e-07
8.899365147e-07
8.925709033e-07
8.949139479e-07
8.970147249e-07
8.989113194e-07
9.006338064e-07
9.022063e-07
9.036483956e-07
9.049762055e-07
9.0620312e-07
9.073403723e-07
9.083974677e-07
9.093825115e-07
9.10302468e-07
9.11163365e-07
9.119704609e-07
9.127283931e-07
9.134413016e-07
9.141129586e-07
9.147468813e-07
9.153464629e-07
9.159150713e-07
9.164562153e-07
9.169823148e-07
9.174742927e-07
9.037453479e-07
9.080079287e-07
2.162923142e-05
0.0001253892511
6.957466354e-07
7.876465313e-07
8.211388929e-07
8.400671535e-07
8.527060093e-07
8.619351796e-07
8.690652163e-07
8.747918534e-07
8.795240431e-07
8.835203406e-07
8.869534432e-07
8.899437633e-07
8.9257821e-07
8.949213199e-07
8.970221714e-07
8.989188517e-07
9.006414385e-07
9.022140481e-07
9.036562788e-07
9.049842454e-07
9.062113407e-07
9.073487999e-07
9.084061307e-07
9.093914404e-07
9.103116947e-07
9.111729241e-07
9.119803899e-07
9.127387341e-07
9.134521033e-07
9.141242798e-07
9.147587941e-07
9.153590544e-07
9.159284432e-07
9.164704912e-07
9.169986317e-07
9.174875343e-07
9.030417824e-07
9.076497976e-07
2.174034268e-05
0.0001254809217
6.957535725e-07
7.876552359e-07
8.211476052e-07
8.400759971e-07
8.527149754e-07
8.619442587e-07
8.690744037e-07
8.748011476e-07
8.795334452e-07
8.835298537e-07
8.869630722e-07
8.899535146e-07
8.925880913e-07
8.949313406e-07
8.97032342e-07
8.989291837e-07
9.006519446e-07
9.022247419e-07
9.036671747e-07
9.049953581e-07
9.062226847e-07
9.07360389e-07
9.084179774e-07
9.094035556e-07
9.103240871e-07
9.111856004e-07
9.119933554e-07
9.127519947e-07
9.13465667e-07
9.141381612e-07
9.147730166e-07
9.153736555e-07
9.159434755e-07
9.164860323e-07
9.170157714e-07
9.175009702e-07
9.023767159e-07
9.073337379e-07
2.184219552e-05
0.0001255627541
6.957622316e-07
7.876658226e-07
8.211582813e-07
8.400868636e-07
8.527260173e-07
8.619554655e-07
8.690857719e-07
8.748126782e-07
8.795451423e-07
8.835417237e-07
8.869751231e-07
8.89965756e-07
8.926005335e-07
8.949439947e-07
8.970452193e-07
8.989422956e-07
9.006653024e-07
9.022383559e-07
9.036810538e-07
9.050095094e-07
9.062371121e-07
9.073750927e-07
9.084329525e-07
9.094187921e-07
9.103395682e-07
9.112013026e-07
9.120092488e-07
9.127680451e-07
9.134818381e-07
9.141544195e-07
9.147893338e-07
9.153900162e-07
9.159598806e-07
9.165025123e-07
9.170333781e-07
9.175141968e-07
9.017394497e-07
9.070485394e-07
2.193685176e-05
0.0001256352563
6.957726008e-07
7.876782772e-07
8.211709078e-07
8.400997397e-07
8.527391215e-07
8.619687862e-07
8.690993067e-07
8.748264306e-07
8.795591194e-07
8.83555935e-07
8.869895799e-07
8.899804707e-07
8.926155189e-07
8.949592637e-07
8.970607841e-07
8.989581673e-07
9.006814906e-07
9.022548676e-07
9.036978922e-07
9.050266734e-07
9.062545946e-07
9.073928798e-07
9.084510213e-07
9.0943711e-07
9.103580916e-07
9.112199765e-07
9.120280061e-07
9.127868091e-07
9.135005244e-07
9.141729412e-07
9.148076086e-07
9.154079735e-07
9.159774664e-07
9.165197091e-07
9.170512097e-07
9.175269128e-07
9.011195382e-07
9.06786048e-07
2.202628589e-05
0.0001256987275
6.957846637e-07
7.876925808e-07
8.211854663e-07
8.401146068e-07
8.52754269e-07
8.619842015e-07
8.691149885e-07
8.748423847e-07
8.79575356e-07
8.835724671e-07
8.870064218e-07
8.899976378e-07
8.926330267e-07
8.949771267e-07
8.970790159e-07
8.989767788e-07
9.007004897e-07
9.02274258e-07
9.037176718e-07
9.05046833e-07
9.062751164e-07
9.074137354e-07
9.084721698e-07
9.09458496e-07
9.103796439e-07
9.112416069e-07
9.120496089e-07
9.12808263e-07
9.135216942e-07
9.141936837e-07
9.148277817e-07
9.154274469e-07
9.159961293e-07
9.16537495e-07
9.17069127e-07
9.175389069e-07
9.005064774e-07
9.065423359e-07
2.211260353e-05
0.0001257532359
6.957983994e-07
7.877087094e-07
8.21201933e-07
8.401314409e-07
8.527714355e-07
8.620016865e-07
8.691327922e-07
8.748605154e-07
8.795938268e-07
8.835912944e-07
8.870256235e-07
8.900172326e-07
8.926530326e-07
8.949975606e-07
8.970998927e-07
8.989981097e-07
9.007222815e-07
9.022965118e-07
9.037403806e-07
9.050699803e-07
9.062986741e-07
9.074376614e-07
9.084964055e-07
9.094829637e-07
9.104042445e-07
9.112662187e-07
9.120740864e-07
9.128324377e-07
9.135453779e-07
9.142166736e-07
9.148498716e-07
9.154484397e-07
9.160158521e-07
9.165558319e-07
9.170870871e-07
9.175500492e-07
8.998893141e-07
9.063204202e-07
2.219844312e-05
0.000125798827
6.958137831e-07
7.877266344e-07
8.212202791e-07
8.401502127e-07
8.527905911e-07
8.620212113e-07
8.691526874e-07
8.74880792e-07
8.796145012e-07
8.836123867e-07
8.870471554e-07
8.900392259e-07
8.92675509e-07
8.950205394e-07
8.971233909e-07
8.990221397e-07
9.007468496e-07
9.023216172e-07
9.037660125e-07
9.050961163e-07
9.063252769e-07
9.074646763e-07
9.085237574e-07
9.095105536e-07
9.104319464e-07
9.112938775e-07
9.121015158e-07
9.128594211e-07
9.135716704e-07
9.142420086e-07
9.148739735e-07
9.15471039e-07
9.160367069e-07
9.16574771e-07
9.171051397e-07
9.175602825e-07
8.992561986e-07
9.061357106e-07
2.228768795e-05
0.0001258280024
6.958307853e-07
7.877463224e-07
8.212404709e-07
8.401708879e-07
8.528117011e-07
8.620427402e-07
8.691746383e-07
8.749031786e-07
8.796373437e-07
8.836357089e-07
8.870709829e-07
8.900635849e-07
8.927004247e-07
8.950460347e-07
8.971494853e-07
8.990488477e-07
9.007741784e-07
9.023495651e-07
9.037945668e-07
9.0512525e-07
9.063549455e-07
9.074948145e-07
9.085542754e-07
9.095413332e-07
9.104628363e-07
9.113246897e-07
9.121320241e-07
9.12889359e-07
9.136007341e-07
9.142698623e-07
9.149002643e-07
9.154954181e-07
9.160588562e-07
9.165944574e-07
9.171234297e-07
9.1756961e-07
8.985939635e-07
9.059926937e-07
2.238108882e-05
0.0001259020522
6.958493723e-07
7.877677352e-07
8.212624696e-07
8.401934267e-07
8.52834725e-07
8.620662327e-07
8.691986038e-07
8.749276343e-07
8.796623134e-07
8.836612207e-07
8.870970671e-07
8.90090272e-07
8.927277445e-07
8.950740144e-07
8.971781479e-07
8.99078211e-07
9.00804252e-07
9.023803485e-07
9.038260468e-07
9.051573972e-07
9.063877109e-07
9.075281249e-07
9.085880293e-07
9.095753956e-07
9.104970333e-07
9.113588035e-07
9.121657886e-07
9.129224579e-07
9.136328019e-07
9.143004889e-07
9.149290115e-07
9.155218467e-07
9.160825603e-07
9.166151334e-07
9.171421994e-07
9.175780835e-07
8.978877933e-07
9.058898151e-07
2.248018023e-05
0.0001260438083
6.958695062e-07
7.877908299e-07
8.212862312e-07
8.402177842e-07
8.528596172e-07
8.620916423e-07
8.692245375e-07
8.749541124e-07
8.79689364e-07
8.836888766e-07
8.871253635e-07
8.901192445e-07
8.927574285e-07
8.951044421e-07
8.972093475e-07
8.991102045e-07
9.008370533e-07
9.024139606e-07
9.038604581e-07
9.051925789e-07
9.064236126e-07
9.075646693e-07
9.086251069e-07
9.096128587e-07
9.105346893e-07
9.113964079e-07
9.122030386e-07
9.129589877e-07
9.13668182e-07
9.143342309e-07
9.149605828e-07
9.155507046e-07
9.161081943e-07
9.166371521e-07
9.171617966e-07
9.175857982e-07
8.971226788e-07
9.058806419e-07
2.25874596e-05
0.0001259702332
6.958911448e-07
7.878155587e-07
8.213117069e-07
8.402439103e-07
8.528863264e-07
8.621189172e-07
8.692523868e-07
8.749825603e-07
8.797184431e-07
8.837186249e-07
8.871558218e-07
8.901504545e-07
8.927894314e-07
8.951372767e-07
8.972430481e-07
8.991447996e-07
9.008725628e-07
9.024503931e-07
9.038978072e-07
9.052308195e-07
9.064626968e-07
9.0760452e-07
9.086656117e-07
9.096538626e-07
9.105759869e-07
9.114377334e-07
9.122440565e-07
9.129992852e-07
9.137072654e-07
9.1437153e-07
9.149954614e-07
9.155825004e-07
9.161362697e-07
9.166610019e-07
9.17182696e-07
9.175928905e-07
8.962804595e-07
9.060245092e-07
2.271600033e-05
0.0001261159583
6.959142416e-07
7.878418689e-07
8.213388425e-07
8.402717493e-07
8.529147958e-07
8.621479996e-07
8.692820937e-07
8.750129194e-07
8.797494924e-07
8.837504078e-07
8.871883857e-07
8.901838475e-07
8.928237017e-07
8.951724708e-07
8.972792082e-07
8.991819626e-07
9.009107567e-07
9.02489635e-07
9.039380991e-07
9.052721443e-07
9.065050134e-07
9.076477572e-07
9.087096607e-07
9.096985683e-07
9.10621138e-07
9.114830506e-07
9.122891789e-07
9.130437589e-07
9.137505349e-07
9.144129403e-07
9.150342666e-07
9.156178983e-07
9.161674667e-07
9.166873409e-07
9.172055343e-07
9.17599522e-07
8.953395944e-07
9.063226922e-07
2.284639794e-05
0.0001258611312
6.95938746e-07
7.878697031e-07
8.213675789e-07
8.403012403e-07
8.52944963e-07
8.62178826e-07
8.693135936e-07
8.75045125e-07
8.79782447e-07
8.83784161e-07
8.872229918e-07
8.902193624e-07
8.928601814e-07
8.952099706e-07
8.973177802e-07
8.992216535e-07
9.009516055e-07
9.025316703e-07
9.039813353e-07
9.053165768e-07
9.065506136e-07
9.076944663e-07
9.087573811e-07
9.097471538e-07
9.106703816e-07
9.115326697e-07
9.123387982e-07
9.130928932e-07
9.137985751e-07
9.144591479e-07
9.150777795e-07
9.156577557e-07
9.162026818e-07
9.16717053e-07
9.172311668e-07
9.176059394e-07
8.942911236e-07
9.069695365e-07
2.300415624e-05
0.0001261443997
6.959646027e-07
7.878989989e-07
8.213978515e-07
8.403323169e-07
8.529767601e-07
8.62211327e-07
8.693468161e-07
8.75079106e-07
8.798172356e-07
8.838198136e-07
8.8725957e-07
8.902569307e-07
8.92898805e-07
8.952497149e-07
8.973587084e-07
8.992638249e-07
9.009950726e-07
9.025764764e-07
9.040275114e-07
9.05364136e-07
9.065995463e-07
9.077447337e-07
9.088089063e-07
9.097998108e-07
9.107239799e-07
9.11586938e-07
9.123933625e-07
9.131472539e-07
9.138520841e-07
9.145109918e-07
9.151269761e-07
9.157031718e-07
9.16243095e-07
9.167513337e-07
9.172607741e-07
9.176126467e-07
8.931026405e-07
9.076382642e-07
2.315495027e-05
0.0001256374663
6.959917525e-07
7.879296897e-07
8.214295909e-07
8.403649076e-07
8.530101138e-07
8.622454277e-07
8.69381685e-07
8.751147852e-07
8.798537805e-07
8.838572879e-07
8.872980433e-07
8.902964766e-07
8.929394992e-07
8.952916341e-07
8.97401929e-07
8.993084206e-07
9.010411124e-07
9.026240219e-07
9.040766144e-07
9.05414833e-07
9.066518542e-07
9.077986426e-07
9.08864371e-07
9.098567385e-07
9.107822131e-07
9.116462358e-07
9.124533747e-07
9.132074911e-07
9.13911884e-07
9.145694862e-07
9.151830709e-07
9.157555509e-07
9.162902655e-07
9.167918185e-07
9.172959946e-07
9.176202622e-07
8.917849746e-07
9.089013344e-07
2.332796116e-05
0.0001257572775
6.960201321e-07
7.879617041e-07
8.214627233e-07
8.403989359e-07
8.530449454e-07
8.622810476e-07
8.694181183e-07
8.751520793e-07
8.798919974e-07
8.838964992e-07
8.87338327e-07
8.903379164e-07
8.929821824e-07
8.953356501e-07
8.974473683e-07
8.99355374e-07
9.010896683e-07
9.026742641e-07
9.041286197e-07
9.054686678e-07
9.067075692e-07
9.078562675e-07
9.089239046e-07
9.099181366e-07
9.108453719e-07
9.117109697e-07
9.125193878e-07
9.132743394e-07
9.139789291e-07
9.146358435e-07
9.152475652e-07
9.15816689e-07
9.163462599e-07
9.168407705e-07
9.173392306e-07
9.176303556e-07
8.902927047e-07
9.101417863e-07
2.349329232e-05
0.0001253710085
6.960496745e-07
7.879949673e-07
8.214971706e-07
8.404343208e-07
8.530811714e-07
8.62318101e-07
8.694560281e-07
8.751908989e-07
8.799317959e-07
8.83937356e-07
8.873803296e-07
8.903811587e-07
8.930267639e-07
8.953816744e-07
8.974949422e-07
8.99404607e-07
9.011406712e-07
9.027271462e-07
9.041834881e-07
9.055256247e-07
9.067667079e-07
9.079176677e-07
9.089876229e-07
9.099841967e-07
9.109137475e-07
9.117815626e-07
9.125919963e-07
9.133486135e-07
9.140543117e-07
9.147114983e-07
9.153222988e-07
9.158888812e-07
9.164138304e-07
9.169013473e-07
9.173939392e-07
9.176452455e-07
8.886705977e-07
9.118030867e-07
2.364066531e-05
0.0001250139446
6.960803098e-07
7.880294005e-07
8.215328508e-07
8.404709769e-07
8.531187034e-07
8.623564968e-07
8.694953214e-07
8.752311489e-07
8.799730787e-07
8.839797598e-07
8.874239514e-07
8.904261036e-07
8.930731439e-07
8.954296084e-07
8.975445545e-07
8.994560279e-07
9.011940363e-07
9.027825946e-07
9.042411615e-07
9.055856678e-07
9.06829265e-07
9.079828794e-07
9.090556195e-07
9.100550905e-07
9.109876187e-07
9.118584386e-07
9.126718206e-07
9.13431196e-07
9.141392603e-07
9.147981261e-07
9.154095082e-07
9.159750387e-07
9.16496648e-07
9.169779823e-07
9.174653941e-07
9.176693736e-07
8.868366827e-07
9.132716557e-07
2.377877419e-05
0.0001245525967
6.961119651e-07
7.880649218e-07
8.215696775e-07
8.405088144e-07
8.53157448e-07
8.623961386e-07
8.695358988e-07
8.752727276e-07
8.800157422e-07
8.840236049e-07
8.87469085e-07
8.904726421e-07
8.931212125e-07
8.954793416e-07
8.975960961e-07
8.995095303e-07
9.012496622e-07
9.028405158e-07
9.043015597e-07
9.056487357e-07
9.068952063e-07
9.080519076e-07
9.09127955e-07
9.101309567e-07
9.110672348e-07
9.119420035e-07
9.127594856e-07
9.135230172e-07
9.142351268e-07
9.148976523e-07
9.155118825e-07
9.160788311e-07
9.165995831e-07
9.170769135e-07
9.175612716e-07