/*--------------------------------*- C++ -*----------------------------------*\
| =========                 |                                                 |
| \\      /  F ield         | OpenFOAM: The Open Source CFD Toolbox           |
|  \\    /   O peration     | Version:  v1912                                 |
|   \\  /    A nd           | Website:  www.openfoam.com                      |
|    \\/     M anipulation  |                                                 |
\*---------------------------------------------------------------------------*/
FoamFile
{
    version     2.0;
    format      ascii;
    class       volScalarField;
    location    "0.2";
    object      k.gas_0;
}
// * * * * * * * * * * * * * * * * * * * * * * * * * * * * * * * * * * * * * //

dimensions      [0 2 -2 0 0 0 0];


internalField   nonuniform List<scalar> 
4800
(
2.491680408e-07
2.743121719e-07
2.832054083e-07
2.881945387e-07
2.915302633e-07
2.939810454e-07
2.958935127e-07
2.974509853e-07
2.987613386e-07
2.998932732e-07
3.008934225e-07
3.017952271e-07
3.026239896e-07
3.033998749e-07
3.041399085e-07
3.048593413e-07
3.055727271e-07
3.062948223e-07
3.070414797e-07
3.078306037e-07
3.086832896e-07
3.096252768e-07
3.106888857e-07
3.119157286e-07
3.133606053e-07
3.150972104e-07
3.172268336e-07
3.198919123e-07
3.232978312e-07
3.277493013e-07
3.337135534e-07
3.419355327e-07
3.536603793e-07
3.710940199e-07
3.98444814e-07
4.443621265e-07
5.346041656e-07
6.62613829e-07
9.263879791e-07
5.978785176e-06
7.308863538e-07
8.280061403e-07
8.634020643e-07
8.83377471e-07
8.96700629e-07
9.064202421e-07
9.139240094e-07
9.199486361e-07
9.249271802e-07
9.291334848e-07
9.327505185e-07
9.359059659e-07
9.386920904e-07
9.411775711e-07
9.434148054e-07
9.45444689e-07
9.472997824e-07
9.490065429e-07
9.505868983e-07
9.520594284e-07
9.534402871e-07
9.547439627e-07
9.559839737e-07
9.571735935e-07
9.583266228e-07
9.594585041e-07
9.605878213e-07
9.617386911e-07
9.629447364e-07
9.642560378e-07
9.657521129e-07
9.675674533e-07
9.699452695e-07
9.733591392e-07
9.788245864e-07
9.88070695e-07
1.030863921e-06
5.353071469e-07
7.214952076e-06
5.906929648e-05
6.913191975e-07
7.81770567e-07
8.147175442e-07
8.333278508e-07
8.457556768e-07
8.548334446e-07
8.618498116e-07
8.674887313e-07
8.721521716e-07
8.760942532e-07
8.794847162e-07
8.824419226e-07
8.850513157e-07
8.873763641e-07
8.894653684e-07
8.913558422e-07
8.930774591e-07
8.946540758e-07
8.961051665e-07
8.974468713e-07
8.986927871e-07
8.998545913e-07
9.009425769e-07
9.019661198e-07
9.029342278e-07
9.038561507e-07
9.047422968e-07
9.056056388e-07
9.064641364e-07
9.073451177e-07
9.082936193e-07
9.093891957e-07
9.107814782e-07
9.12769865e-07
9.160005342e-07
9.213938203e-07
9.561547211e-07
4.937712505e-07
4.261991582e-06
8.654246582e-05
6.934970372e-07
7.842923027e-07
8.173608938e-07
8.360371658e-07
8.4850719e-07
8.576145888e-07
8.646531024e-07
8.703093721e-07
8.749869419e-07
8.789409299e-07
8.823417413e-07
8.853082064e-07
8.879261199e-07
8.902592236e-07
8.923560346e-07
8.942542606e-07
8.959837496e-07
8.975685267e-07
8.990282411e-07
9.003792198e-07
9.01635269e-07
9.028083078e-07
9.039089051e-07
9.049467822e-07
9.059313452e-07
9.068723358e-07
9.077807365e-07
9.086701651e-07
9.09559189e-07
9.104753929e-07
9.114628755e-07
9.125966763e-07
9.140117416e-07
9.159635182e-07
9.18961964e-07
9.238436707e-07
9.484312417e-07
3.880890479e-07
1.146104476e-05
0.0001022758639
6.933381327e-07
7.841115235e-07
8.171716487e-07
8.358431081e-07
8.48309702e-07
8.574143306e-07
8.644504002e-07
8.701043705e-07
8.747796744e-07
8.787313546e-07
8.821297597e-07
8.850936748e-07
8.877088523e-07
8.900389941e-07
8.921325757e-07
8.940272583e-07
8.957528372e-07
8.973332753e-07
8.98788145e-07
9.001336783e-07
9.013835598e-07
9.025495498e-07
9.036420053e-07
9.04670358e-07
9.056436048e-07
9.065708919e-07
9.074623023e-07
9.083300351e-07
9.091903195e-07
9.100666798e-07
9.109957564e-07
9.120380439e-07
9.13298306e-07
9.149653681e-07
9.173914268e-07
9.212256274e-07
9.312670514e-07
6.121976263e-07
1.985526703e-05
0.0001091908542
6.933209691e-07
7.840949466e-07
8.171545803e-07
8.358256595e-07
8.482917357e-07
8.573957143e-07
8.644309971e-07
8.700840375e-07
8.747582606e-07
8.787087001e-07
8.821056936e-07
8.850680125e-07
8.876813935e-07
8.900095195e-07
8.921008426e-07
8.939929955e-07
8.957157392e-07
8.97292993e-07
8.987442741e-07
9.000857441e-07
9.013309949e-07
9.024916639e-07
9.035779396e-07
9.045990181e-07
9.05563556e-07
9.064801931e-07
9.073582307e-07
9.082086156e-07
9.090454823e-07
9.098886969e-07
9.107682101e-07
9.117317036e-07
9.1285826e-07
9.142830136e-07
9.16241699e-07
9.191304598e-07
9.250767205e-07
8.789668666e-07
8.345636069e-06
0.0001120456474
6.932960612e-07
7.840694087e-07
8.171280155e-07
8.357984455e-07
8.482638302e-07
8.573670372e-07
8.64401444e-07
8.700534872e-07
8.747265781e-07
8.786757378e-07
8.820712906e-07
8.850319934e-07
8.876435663e-07
8.899696732e-07
8.920587432e-07
8.939483815e-07
8.956683153e-07
8.972424222e-07
8.986901664e-07
9.000276412e-07
9.012683494e-07
9.024238089e-07
9.035040451e-07
9.045180243e-07
9.054740719e-07
9.063803337e-07
9.07245352e-07
9.080788648e-07
9.088930097e-07
9.097042312e-07
9.105363939e-07
9.11425958e-07
9.124306229e-07
9.136436054e-07
9.152165992e-07
9.173809944e-07
9.218439798e-07
8.432334238e-07
9.344426549e-06
0.0001139930874
6.93272444e-07
7.840453622e-07
8.171029219e-07
8.357727201e-07
8.482374301e-07
8.573398856e-07
8.643734404e-07
8.700245155e-07
8.746965093e-07
8.786444303e-07
8.820385912e-07
8.849977352e-07
8.876075669e-07
8.899317329e-07
8.920186416e-07
8.939058729e-07
8.956231232e-07
8.971942321e-07
8.986386151e-07
8.999723035e-07
9.012087181e-07
9.023592672e-07
9.034338253e-07
9.044411468e-07
9.053892506e-07
9.062858269e-07
9.071387198e-07
9.079565664e-07
9.087497116e-07
9.095315916e-07
9.103208763e-07
9.111448144e-07
9.120444091e-07
9.13082135e-07
9.143525996e-07
9.159875069e-07
9.191510781e-07
8.414903639e-07
1.09376382e-05
0.0001155121318
6.932496686e-07
7.840222798e-07
8.1707875e-07
8.357479213e-07
8.482119665e-07
8.573136865e-07
8.643464114e-07
8.69996547e-07
8.746674789e-07
8.786142043e-07
8.820070244e-07
8.849646703e-07
8.875728327e-07
8.898951422e-07
8.919799888e-07
8.938649298e-07
8.955796343e-07
8.971479077e-07
8.985891226e-07
8.999192546e-07
9.011516516e-07
9.022976238e-07
9.033669106e-07
9.043680762e-07
9.053088655e-07
9.06196562e-07
9.070383918e-07
9.078420276e-07
9.086162713e-07
9.093720299e-07
9.101237402e-07
9.108914386e-07
9.117036937e-07
9.126014553e-07
9.136422999e-07
9.149002034e-07
9.170880187e-07
8.51564528e-07
1.239292793e-05
0.0001163262992
6.932278515e-07
7.840002876e-07
8.170556366e-07
8.357241914e-07
8.481875867e-07
8.572885919e-07
8.643205141e-07
8.699697438e-07
8.746396549e-07
8.785852337e-07
8.819767713e-07
8.849329876e-07
8.875395611e-07
8.898601083e-07
8.919430032e-07
8.938257835e-07
8.955380944e-07
8.971037121e-07
8.985419717e-07
8.998688011e-07
9.010974848e-07
9.022392478e-07
9.033037128e-07
9.042992785e-07
9.052334523e-07
9.061131674e-07
9.069451215e-07
9.077361736e-07
9.084938478e-07
9.09227008e-07
9.099467787e-07
9.106677764e-07
9.11409677e-07
9.12198945e-07
9.130700532e-07
9.140650644e-07
9.15546095e-07
8.662780016e-07
1.362847443e-05
0.0001166122451
6.932070712e-07
7.839794682e-07
8.170336731e-07
8.357016265e-07
8.481643908e-07
8.572647061e-07
8.642958567e-07
8.699442185e-07
8.746131547e-07
8.785576414e-07
8.819479602e-07
8.849028219e-07
8.875078941e-07
8.898267813e-07
8.919078437e-07
8.937886027e-07
8.954986836e-07
8.970618379e-07
8.984973697e-07
8.998211668e-07
9.010464607e-07
9.021844053e-07
9.032445246e-07
9.042350789e-07
9.051633763e-07
9.060360578e-07
9.068593847e-07
9.07639553e-07
9.083830657e-07
9.090971948e-07
9.097905666e-07
9.104738706e-07
9.11160649e-07
9.118679614e-07
9.126163724e-07
9.134312502e-07
9.143800949e-07
8.813175802e-07
1.464672579e-05
0.0001173320799
6.931874048e-07
7.83959902e-07
8.170129492e-07
8.356803203e-07
8.481424764e-07
8.572421304e-07
8.642725446e-07
8.699200808e-07
8.74588092e-07
8.785315456e-07
8.819207147e-07
8.84874302e-07
8.874779663e-07
8.89795302e-07
8.918746581e-07
8.937535429e-07
8.954615653e-07
8.970224575e-07
8.984554984e-07
8.997765439e-07
9.009987828e-07
9.021333112e-07
9.031895739e-07
9.041757184e-07
9.050988915e-07
9.059654989e-07
9.067814533e-07
9.075524284e-07
9.082841386e-07
9.089826578e-07
9.096547913e-07
9.103084795e-07
9.109531754e-07
9.116000385e-07
9.122615732e-07
9.129553688e-07
9.134529995e-07
8.942662195e-07
1.5498222e-05
0.000118050686
6.931689255e-07
7.839416641e-07
8.169935491e-07
8.356603614e-07
8.481219362e-07
8.572209609e-07
8.642506773e-07
8.698974336e-07
8.745645735e-07
8.785070569e-07
8.818951495e-07
8.84847547e-07
8.874499013e-07
8.897657989e-07
8.918435798e-07
8.937207423e-07
8.95426883e-07
8.969857192e-07
8.98416511e-07
8.997350896e-07
9.009546115e-07
9.02086128e-07
9.031390224e-07
9.041213544e-07
9.05040145e-07
9.059016169e-07
9.067114139e-07
9.074748126e-07
9.081969388e-07
9.088829943e-07
9.095385017e-07
9.101695401e-07
9.107829278e-07
9.113862488e-07
9.119875256e-07
9.12601455e-07
9.126489706e-07
9.045142853e-07
1.620784712e-05
0.0001187000396
6.931517028e-07
7.839248241e-07
8.169755526e-07
8.356418333e-07
8.481028569e-07
8.572012878e-07
8.642303479e-07
8.698763733e-07
8.745426989e-07
8.78484278e-07
8.818713704e-07
8.848226662e-07
8.874238117e-07
8.897383875e-07
8.918147274e-07
8.936903222e-07
8.9539476e-07
8.969517477e-07
8.983805322e-07
8.996969273e-07
9.009140663e-07
9.02042968e-07
9.030929703e-07
9.040720679e-07
9.049871877e-07
9.058444157e-07
9.066491965e-07
9.074065154e-07
9.081210741e-07
9.087974624e-07
9.094403299e-07
9.1005454e-07
9.106452728e-07
9.112180255e-07
9.117784572e-07
9.123407961e-07
9.118781427e-07
9.116620007e-07
1.688584798e-05
0.0001192533578
6.931358022e-07
7.839094466e-07
8.16959034e-07
8.35624814e-07
8.480853197e-07
8.57183195e-07
8.642116434e-07
8.698569892e-07
8.745225599e-07
8.784633034e-07
8.818494744e-07
8.847997587e-07
8.873997986e-07
8.897131707e-07
8.917882047e-07
8.936623868e-07
8.953653001e-07
8.969206447e-07
8.983476599e-07
8.996621484e-07
9.008772285e-07
9.020038974e-07
9.030514621e-07
9.040278718e-07
9.04939987e-07
9.057937968e-07
9.065946041e-07
9.073471894e-07
9.080559613e-07
9.087250961e-07
9.09358673e-07
9.099607917e-07
9.10535655e-07
9.110875966e-07
9.116211382e-07
9.121510392e-07
9.11071804e-07
9.156080719e-07
1.758690433e-05
0.0001197065211
6.931212849e-07
7.838955905e-07
8.169440623e-07
8.356093757e-07
8.480694e-07
8.571667604e-07
8.641946436e-07
8.698393636e-07
8.745042411e-07
8.784442192e-07
8.818295491e-07
8.847789133e-07
8.873779516e-07
8.896902384e-07
8.91764101e-07
8.936370239e-07
8.953385878e-07
8.968924901e-07
8.983179664e-07
8.996308143e-07
9.008441443e-07
9.019689411e-07
9.030144931e-07
9.039887211e-07
9.048984416e-07
9.057495793e-07
9.065473424e-07
9.072963743e-07
9.080008908e-07
9.086648023e-07
9.092918316e-07
9.098856226e-07
9.104498249e-07
9.109881617e-07
9.115047229e-07
9.120150104e-07
9.101810228e-07
9.160135776e-07
1.815059044e-05
0.0001201475475
6.931082086e-07
7.838833092e-07
8.16930701e-07
8.35595585e-07
8.480551667e-07
8.571520552e-07
8.641794218e-07
8.698235714e-07
8.744878187e-07
8.78427103e-07
8.818116729e-07
8.847602087e-07
8.873583492e-07
8.896696679e-07
8.917424919e-07
8.936143056e-07
8.953146901e-07
8.968673432e-07
8.982915007e-07
8.996029596e-07
9.008148288e-07
9.019380883e-07
9.029820178e-07
9.03954523e-07
9.048623954e-07
9.057115203e-07
9.065070478e-07
9.072535361e-07
9.07955082e-07
9.086154353e-07
9.092381104e-07
9.098264967e-07
9.103839538e-07
9.109139139e-07
9.114204495e-07
9.119196206e-07
9.091664099e-07
9.133465297e-07
1.861660912e-05
0.0001204989377
6.930966282e-07
7.838726494e-07
8.169190082e-07
8.355835023e-07
8.480426825e-07
8.571391442e-07
8.641660444e-07
8.698096802e-07
8.744733612e-07
8.784120239e-07
8.817959149e-07
8.847437138e-07
8.87341059e-07
8.896515248e-07
8.917234394e-07
8.93594289e-07
8.952936571e-07
8.968452446e-07
8.982682906e-07
8.995785952e-07
9.007892705e-07
9.019112981e-07
9.029539565e-07
9.039251472e-07
9.048316508e-07
9.056793328e-07
9.064733121e-07
9.072180996e-07
9.07917726e-07
9.085758534e-07
9.091958854e-07
9.097810844e-07
9.103346769e-07
9.108599794e-07
9.113613073e-07
9.11854886e-07
9.079947401e-07
9.088878995e-07
1.900857134e-05
0.0001208535275
6.930865943e-07
7.838636523e-07
8.169090361e-07
8.355731821e-07
8.48032004e-07
8.571280855e-07
8.641545708e-07
8.697977503e-07
8.744609295e-07
8.783990427e-07
8.817823355e-07
8.847294877e-07
8.873261383e-07
8.896358632e-07
8.917069931e-07
8.935770175e-07
8.952755241e-07
8.968262184e-07
8.982483456e-07
8.995577117e-07
9.007674356e-07
9.018885051e-07
9.029302036e-07
9.039004356e-07
9.048059818e-07
9.056527019e-07
9.064457028e-07
9.071894752e-07
9.078880193e-07
9.08544958e-07
9.091636466e-07
9.09747297e-07
9.102990908e-07
9.108223181e-07
9.113217275e-07
9.118132006e-07
9.066423814e-07
9.055126292e-07
1.934093706e-05
0.0001211270812
6.93078155e-07
7.838563527e-07
8.169008315e-07
8.355646732e-07
8.480231816e-07
8.571189307e-07
8.641450533e-07
8.697878345e-07
8.744505765e-07
8.783882119e-07
8.817709863e-07
8.847175802e-07
8.873136341e-07
8.896227265e-07
8.916931913e-07
8.935625223e-07
8.952603127e-07
8.968102743e-07
8.982316598e-07
8.995402834e-07
9.007492728e-07
9.018696258e-07
9.029106344e-07
9.038802117e-07
9.047851454e-07
9.056312993e-07
9.064237815e-07
9.071670803e-07
9.078651887e-07
9.085217209e-07
9.091400214e-07
9.09723295e-07
9.102747244e-07
9.107976129e-07
9.112973132e-07
9.117888265e-07
9.052365966e-07
9.031183693e-07
1.962509901e-05
0.0001213925403
6.930713574e-07
7.838507778e-07
8.168944359e-07
8.355580181e-07
8.480162592e-07
8.571117247e-07
8.641375377e-07
8.697799787e-07
8.744423476e-07
8.783795762e-07
8.817619107e-07
8.847080325e-07
8.873035846e-07
8.896121484e-07
8.916820618e-07
8.935508237e-07
8.952480334e-07
8.967974101e-07
8.982182147e-07
8.995262713e-07
9.007347179e-07
9.018545637e-07
9.028951124e-07
9.038642885e-07
9.047688915e-07
9.056147955e-07
9.064071178e-07
9.071503553e-07
9.078485081e-07
9.085051992e-07
9.091237841e-07
9.097074821e-07
9.102594972e-07
9.1078316e-07
9.11284609e-07
9.117771088e-07
9.039800858e-07
9.012850377e-07
1.98707107e-05
0.0001216183456
6.930662449e-07
7.838469493e-07
8.16889885e-07
8.355532533e-07
8.480112745e-07
8.571065059e-07
8.641320627e-07
8.697742216e-07
8.744362811e-07
8.78373173e-07
8.817551441e-07
8.847008778e-07
8.872960194e-07
8.896041538e-07
8.916736235e-07
8.935419326e-07
8.95238687e-07
8.967876135e-07
8.982079823e-07
8.995156273e-07
9.007236975e-07
9.018432145e-07
9.028834948e-07
9.038524761e-07
9.047569716e-07
9.056028692e-07
9.063952999e-07
9.07138775e-07
9.078373095e-07
9.084945444e-07
9.091138564e-07
9.096984889e-07
9.102516729e-07
9.107767681e-07
9.11280884e-07
9.117739922e-07
9.028578038e-07
8.99855372e-07
2.008410355e-05
0.0001217830479
6.930628642e-07
7.838448793e-07
8.168872095e-07
8.355504099e-07
8.480082593e-07
8.571033066e-07
8.641286606e-07
8.697705951e-07
8.744324084e-07
8.783690322e-07
8.817507148e-07
8.846961414e-07
8.872909603e-07
8.895987599e-07
8.916678873e-07
8.935358519e-07
8.952322664e-07
8.967808653e-07
8.982009274e-07
8.995082969e-07
9.007161336e-07
9.018354709e-07
9.028756387e-07
9.038445879e-07
9.04749146e-07
9.055952157e-07
9.063879431e-07
9.071318568e-07
9.078309898e-07
9.084890045e-07
9.091093021e-07
9.096951528e-07
9.102498137e-07
9.107766698e-07
9.112838325e-07
9.11777128e-07
9.018508713e-07
8.987198341e-07
2.027032736e-05
0.0001219277642
6.930612628e-07
7.838445727e-07
8.168864349e-07
8.355495128e-07
8.480072392e-07
8.571021527e-07
8.641273571e-07
8.697691249e-07
8.74430754e-07
8.783671772e-07
8.817486441e-07
8.846938422e-07
8.872884225e-07
8.895959771e-07
8.916648575e-07
8.935325785e-07
8.952287589e-07
8.967771407e-07
8.981970107e-07
8.995042227e-07
9.007119464e-07
9.018312266e-07
9.028714053e-07
9.038404459e-07
9.047451891e-07
9.055915522e-07
9.063846958e-07
9.071291657e-07
9.078290135e-07
9.084879225e-07
9.091093183e-07
9.096964966e-07
9.102527369e-07
9.107814437e-07
9.112917192e-07
9.117847467e-07
9.009423296e-07
8.978000676e-07
2.04337186e-05
0.0001220584524
6.930614882e-07
7.83846027e-07
8.168875819e-07
8.355505815e-07
8.480082339e-07
8.57103064e-07
8.641281722e-07
8.6976983e-07
8.744313363e-07
8.783676247e-07
8.817489467e-07
8.846939921e-07
8.872884146e-07
8.895958096e-07
8.916645327e-07
8.935321038e-07
8.952281471e-07
8.967764112e-07
8.981961904e-07
8.995033462e-07
9.007110579e-07
9.018303794e-07
9.028706634e-07
9.038398842e-07
9.047448939e-07
9.055916223e-07
9.063852429e-07
9.071303168e-07
9.078309127e-07
9.084907329e-07
9.091132245e-07
9.09701706e-07
9.102594748e-07
9.10789951e-07
9.113032133e-07
9.117954697e-07
9.001170206e-07
8.970399885e-07
2.057802469e-05
0.0001221763433
6.930634682e-07
7.83849296e-07
8.168906556e-07
8.35553628e-07
8.480112567e-07
8.57106054e-07
8.641311189e-07
8.697727231e-07
8.744341669e-07
8.783703852e-07
8.817516313e-07
8.846965972e-07
8.872909393e-07
8.89598256e-07
8.916669064e-07
8.935344147e-07
8.9523041e-07
8.967786462e-07
8.981984236e-07
8.995056104e-07
9.007133932e-07
9.018328337e-07
9.028732924e-07
9.038427524e-07
9.047480746e-07
9.055951985e-07
9.06389308e-07
9.071349763e-07
9.078362861e-07
9.084969562e-07
9.091204513e-07
9.0971011e-07
9.102692439e-07
9.108012877e-07
9.113172826e-07
9.118082351e-07
8.993613497e-07
8.963985026e-07
2.070642147e-05
0.0001222825534
6.930671437e-07
7.838544182e-07
8.168956574e-07
8.355586588e-07
8.480163151e-07
8.571111304e-07
8.641362047e-07
8.697778111e-07
8.744392516e-07
8.78375463e-07
8.817567005e-07
8.847016579e-07
8.872959941e-07
8.8960331e-07
8.916719678e-07
8.93539495e-07
8.952355244e-07
8.967838139e-07
8.982036686e-07
8.995109613e-07
9.007188838e-07
9.01838503e-07
9.02879185e-07
9.038489185e-07
9.047545699e-07
9.056020853e-07
9.063966554e-07
9.071428618e-07
9.078447975e-07
9.085061944e-07
9.091305322e-07
9.097211661e-07
9.102814195e-07
9.108147433e-07
9.113331284e-07
9.118222203e-07
8.986630164e-07
8.958451015e-07
2.082162573e-05
0.0001223780741
6.930725152e-07
7.838613937e-07
8.169025888e-07
8.35565676e-07
8.480234113e-07
8.571182953e-07
8.641434314e-07
8.697850952e-07
8.744465908e-07
8.783828574e-07
8.817641519e-07
8.847091699e-07
8.873035721e-07
8.896109619e-07
8.916797033e-07
8.935473263e-07
8.952434664e-07
8.967918837e-07
8.982118864e-07
8.995193502e-07
9.007274691e-07
9.018473129e-07
9.028882502e-07
9.038582716e-07
9.047642455e-07
9.05612121e-07
9.064070916e-07
9.071537433e-07
9.078561754e-07
9.085181292e-07
9.091430963e-07
9.097344451e-07
9.102955115e-07
9.108297649e-07
9.113501376e-07
9.118367857e-07
8.980107544e-07
8.95357245e-07
2.092603123e-05
0.0001224637357
6.930795792e-07
7.83870218e-07
8.169114468e-07
8.355746768e-07
8.480325425e-07
8.571275457e-07
8.641527956e-07
8.697945713e-07
8.744561799e-07
8.783925626e-07
8.817739783e-07
8.847191244e-07
8.873136629e-07
8.896211987e-07
8.916900972e-07
8.935578895e-07
8.952542124e-07
8.968028271e-07
8.982230425e-07
8.99530735e-07
9.007390986e-07
9.018592026e-07
9.029004145e-07
9.038707238e-07
9.047769967e-07
9.056251804e-07
9.064204672e-07
9.071674435e-07
9.078702107e-07
9.085325157e-07
9.09157858e-07
9.097496183e-07
9.103111457e-07
9.10845931e-07
9.113678476e-07
9.118514359e-07
8.973940768e-07
8.949181743e-07
2.102176738e-05
0.0001225401907
6.930883279e-07
7.838808818e-07
8.169222232e-07
8.355856531e-07
8.480437003e-07
8.571388731e-07
8.641642882e-07
8.6980623e-07
8.744680086e-07
8.784045678e-07
8.817861681e-07
8.847315086e-07
8.873262522e-07
8.896340046e-07
8.917031317e-07
8.935711646e-07
8.952677401e-07
8.968166185e-07
8.982371075e-07
8.995450818e-07
9.007537327e-07
9.018741256e-07
9.029156237e-07
9.038862111e-07
9.047927477e-07
9.056411742e-07
9.064366766e-07
9.071838371e-07
9.078867544e-07
9.08549178e-07
9.091746117e-07
9.097664472e-07
9.103280484e-07
9.108629325e-07
9.113859214e-07
9.118657915e-07
8.968030101e-07
8.945150729e-07
2.111076576e-05
0.0001226079047
6.930987493e-07
7.838933709e-07
8.169349046e-07
8.355985915e-07
8.480568711e-07
8.571522635e-07
8.641778952e-07
8.698200565e-07
8.744820617e-07
8.784188571e-07
8.818007049e-07
8.847463055e-07
8.873413224e-07
8.896493613e-07
8.917187876e-07
8.935871313e-07
8.952840278e-07
8.968332351e-07
8.982540572e-07
8.995623646e-07
9.007713429e-07
9.01892051e-07
9.029338431e-07
9.039046942e-07
9.048114531e-07
9.056600495e-07
9.064556577e-07
9.072028502e-07
9.079057181e-07
9.085680078e-07
9.091932268e-07
9.097847773e-07
9.103460378e-07
9.10880559e-07
9.114041307e-07
9.118795716e-07
8.962278295e-07
8.941378803e-07
2.119486564e-05
0.0001226671502
6.93110827e-07
7.839076664e-07
8.169494726e-07
8.356134735e-07
8.480720361e-07
8.571676977e-07
8.641935967e-07
8.69836031e-07
8.744983189e-07
8.7843541e-07
8.818175679e-07
8.847634942e-07
8.873588524e-07
8.896672476e-07
8.91737044e-07
8.936057693e-07
8.953030559e-07
8.968526578e-07
8.982738733e-07
8.995825661e-07
9.007919133e-07
9.019129635e-07
9.029550587e-07
9.039261595e-07
9.048330994e-07
9.056817915e-07
9.064773929e-07
9.072244606e-07
9.079270721e-07
9.085889653e-07
9.092136479e-07
9.09804533e-07
9.103650169e-07
9.108986913e-07
9.114223452e-07
9.118925821e-07
8.956587623e-07
8.93780206e-07
2.127601363e-05
0.0001227179958
6.931245406e-07
7.839237446e-07
8.169659036e-07
8.356302752e-07
8.480891711e-07
8.571851511e-07
8.64211368e-07
8.698541281e-07
8.745167549e-07
8.78454201e-07
8.818367319e-07
8.847830499e-07
8.873788181e-07
8.896876402e-07
8.917578789e-07
8.936270581e-07
8.95324806e-07
8.968748709e-07
8.982965434e-07
8.996056778e-07
9.008154398e-07
9.019368643e-07
9.029792769e-07
9.039506197e-07
9.048577051e-07
9.057064241e-07
9.065019104e-07
9.072486986e-07
9.079508463e-07
9.08612077e-07
9.092358944e-07
9.098257194e-07
9.103849715e-07
9.109172956e-07
9.114405263e-07
9.119047079e-07
8.950856166e-07
8.934414889e-07
2.135662665e-05
0.0001227603587
6.931398653e-07
7.839415774e-07
8.169841691e-07
8.356489677e-07
8.481082466e-07
8.572045939e-07
8.642311789e-07
8.698743177e-07
8.745373393e-07
8.784752002e-07
8.818581675e-07
8.848049438e-07
8.874011918e-07
8.897105134e-07
8.917812686e-07
8.936509772e-07
8.953492613e-07
8.968998622e-07
8.983220608e-07
8.996316999e-07
9.008419306e-07
9.019637705e-07
9.030065253e-07
9.039781136e-07
9.048853214e-07
9.057340108e-07
9.065292854e-07
9.072756495e-07
9.079771331e-07
9.086374382e-07
9.09260059e-07
9.098484221e-07
9.104059733e-07
9.109364237e-07
9.114587243e-07
9.119159056e-07
8.944973519e-07
8.931309863e-07
2.144022711e-05
0.0001227893642
6.93156772e-07
7.839611317e-07
8.170042359e-07
8.35669517e-07
8.481292281e-07
8.57225991e-07
8.64252994e-07
8.698965642e-07
8.745600371e-07
8.784983728e-07
8.818818405e-07
8.84829143e-07
8.874259425e-07
8.897358385e-07
8.918071879e-07
8.936775053e-07
8.953764058e-07
8.969276221e-07
8.98350424e-07
8.996606404e-07
9.00871405e-07
9.019937149e-07
9.030368518e-07
9.040087062e-07
9.049160317e-07
9.057646547e-07
9.065596406e-07
9.073054548e-07
9.080060901e-07
9.086652173e-07
9.092863139e-07
9.0987281e-07
9.104281808e-07
9.109562177e-07
9.114770803e-07
9.119261919e-07
8.938816721e-07
8.928571085e-07
2.152867425e-05
0.0001228687886
6.931752275e-07
7.839823698e-07
8.170260655e-07
8.35691884e-07
8.481520759e-07
8.572493023e-07
8.642767728e-07
8.699208272e-07
8.745848077e-07
8.78523679e-07
8.819077121e-07
8.848556104e-07
8.874530354e-07
8.897635838e-07
8.918356088e-07
8.937066196e-07
8.954062234e-07
8.96958143e-07
8.983816355e-07
8.996925138e-07
9.009038923e-07
9.020267443e-07
9.030703234e-07
9.040424875e-07
9.049499517e-07
9.057984991e-07
9.06593148e-07
9.073383142e-07
9.080379427e-07
9.086956605e-07
9.093149181e-07
9.098991444e-07
9.104518466e-07
9.109769125e-07
9.114958286e-07
9.119356322e-07
8.932246398e-07
8.926069781e-07
2.162197445e-05
0.0001230167026
6.931951943e-07
7.840052496e-07
8.170496149e-07
8.357160245e-07
8.48176745e-07
8.572744821e-07
8.643024695e-07
8.699470607e-07
8.746116057e-07
8.785510739e-07
8.819357386e-07
8.84884304e-07
8.874824309e-07
8.897937134e-07
8.918665002e-07
8.937382951e-07
8.954386969e-07
8.969914176e-07
8.984157e-07
8.9972734e-07
9.009394304e-07
9.020629182e-07
9.031070251e-07
9.040795714e-07
9.049872282e-07
9.058357271e-07
9.066300295e-07
9.073744892e-07
9.080729893e-07
9.087290996e-07
9.093462276e-07
9.099277926e-07
9.104773329e-07
9.109988491e-07
9.115153038e-07
9.119443362e-07
8.925119314e-07
8.924333815e-07
2.17241343e-05
0.0001229030186
6.93216631e-07
7.840297238e-07
8.170748359e-07
8.35741889e-07
8.482031849e-07
8.573014794e-07
8.643300325e-07
8.69975213e-07
8.746403796e-07
8.785805066e-07
8.819658706e-07
8.849151763e-07
8.875140843e-07
8.898261863e-07
8.918998266e-07
8.937725033e-07
8.954738065e-07
8.970274372e-07
8.984526233e-07
8.997651419e-07
9.009780636e-07
9.021023063e-07
9.03147057e-07
9.041200939e-07
9.05028038e-07
9.05876562e-07
9.066705584e-07
9.074143059e-07
9.081116083e-07
9.087659614e-07
9.093807091e-07
9.099592452e-07
9.105051326e-07
9.110224976e-07
9.115359619e-07
9.119524585e-07
8.91726395e-07
8.923576133e-07
2.184302162e-05
0.0001230843732
6.932394917e-07
7.840557409e-07
8.171016754e-07
8.35769423e-07
8.482313398e-07
8.573302375e-07
8.643594047e-07
8.700052267e-07
8.746710719e-07
8.786119204e-07
8.819980526e-07
8.849481739e-07
8.875479451e-07
8.89860956e-07
8.919355472e-07
8.938092108e-07
8.955115286e-07
8.970661906e-07
8.984924095e-07
8.998059437e-07
9.010198399e-07
9.021449862e-07
9.031905323e-07
9.041642104e-07
9.050725864e-07
9.059212656e-07
9.067150607e-07
9.074581592e-07
9.081542664e-07
9.088067813e-07
9.094189597e-07
9.099941419e-07
9.105358996e-07
9.110484895e-07
9.115584121e-07
9.119601813e-07
8.908479766e-07
8.924092929e-07
2.19666559e-05
0.0001227043688
6.932637267e-07
7.840832444e-07
8.171300751e-07
8.357985666e-07
8.482611486e-07
8.573606941e-07
8.643905229e-07
8.700370381e-07
8.74703619e-07
8.786452522e-07
8.820322223e-07
8.849832367e-07
8.875839561e-07
8.898979698e-07
8.919736147e-07
8.938483782e-07
8.95551834e-07
8.971076615e-07
8.985350597e-07
8.998497677e-07
9.010648086e-07
9.021910403e-07
9.032375739e-07
9.042120936e-07
9.051211047e-07
9.059701383e-07
9.067639158e-07
9.075065177e-07
9.082015283e-07
9.088522208e-07
9.094617317e-07
9.100333065e-07
9.105704938e-07
9.110776713e-07
9.11583471e-07
9.119677623e-07
8.898673366e-07
8.927929914e-07
2.212072793e-05
0.000123087842
6.932892817e-07
7.841121732e-07
8.171599717e-07
8.358292547e-07
8.482925446e-07
8.573927811e-07
8.644233181e-07
8.700705775e-07
8.747379511e-07
8.786804323e-07
8.820683112e-07
8.850202976e-07
8.876220531e-07
8.899371672e-07
8.920139748e-07
8.938899588e-07
8.955946863e-07
8.971518275e-07
8.985805688e-07
8.998966318e-07
9.011130166e-07
9.02240552e-07
9.03288311e-07
9.042639286e-07
9.051738466e-07
9.060235159e-07
9.068175573e-07
9.07559928e-07
9.082540675e-07
9.089030884e-07
9.095099636e-07
9.100777943e-07
9.106100459e-07
9.111111858e-07
9.116122632e-07
9.119757082e-07
8.887547023e-07
8.931866563e-07
2.226399951e-05
0.0001227233249
6.933160986e-07
7.841424616e-07
8.171912974e-07
8.358614172e-07
8.483254559e-07
8.574264251e-07
8.644577155e-07
8.701057694e-07
8.74773992e-07
8.787173847e-07
8.821062434e-07
8.850592821e-07
8.876621643e-07
8.899784804e-07
8.920565645e-07
8.939338972e-07
8.956400406e-07
8.971986574e-07
8.986289239e-07
8.999465464e-07
9.011645051e-07
9.022936016e-07
9.033428737e-07
9.043199084e-07
9.052310832e-07
9.060817665e-07
9.068764712e-07
9.076190179e-07
9.083126767e-07
9.0896036e-07
9.095648222e-07
9.101289518e-07
9.106560476e-07
9.111505939e-07
9.116463483e-07
9.119846418e-07
8.875188317e-07
8.940812869e-07
2.242671928e-05
0.0001227071247
6.933441152e-07
7.841740401e-07
8.172239795e-07
8.358949792e-07
8.483598056e-07
8.574615474e-07
8.644936347e-07
8.701425322e-07
8.748116592e-07
8.787560265e-07
8.821459365e-07
8.851001085e-07
8.877042096e-07
8.900218323e-07
8.921013118e-07
8.939801283e-07
8.956878415e-07
8.972481092e-07
8.986801007e-07
8.99999511e-07
9.012193045e-07
9.023502612e-07
9.034013871e-07
9.043802263e-07
9.052930959e-07
9.061452835e-07
9.069411921e-07
9.076844963e-07
9.083782754e-07
9.090252019e-07
9.096277489e-07
9.101884995e-07
9.107104735e-07
9.111980511e-07
9.116880043e-07
9.119960838e-07
8.861172917e-07
8.949149878e-07
2.258569312e-05
0.0001222650658
6.933732658e-07
7.84206835e-07
8.172579417e-07
8.359298613e-07
8.483955119e-07
8.574980639e-07
8.6453099e-07
8.701807784e-07
8.748508641e-07
8.787962681e-07
8.821873005e-07
8.851426872e-07
8.877481004e-07
8.900671367e-07
8.92148134e-07
8.940285752e-07
8.95738021e-07
8.973001272e-07
8.987340603e-07
9.0005551e-07
9.012774307e-07
9.024105878e-07
9.034639634e-07
9.044450675e-07
9.053601669e-07
9.062144759e-07
9.070122941e-07
9.077571488e-07
9.084519154e-07
9.09098993e-07
9.097005085e-07
9.10258634e-07
9.107759507e-07
9.112565609e-07
9.117405057e-07
9.120122257e-07
8.845915138e-07
8.961915954e-07
2.272970959e-05
0.000122043649
6.934034819e-07
7.842407692e-07
8.172931035e-07
8.359659799e-07
8.484324881e-07
8.575358857e-07
8.645696901e-07
8.70220415e-07
8.748915117e-07
8.788380132e-07
8.822302381e-07
8.851869204e-07
8.87793739e-07
8.901142969e-07
8.921969373e-07
8.940791487e-07
8.957904965e-07
8.973546395e-07
8.987907462e-07
9.00114508e-07
9.01338878e-07
9.024746163e-07
9.035306932e-07
9.045145989e-07
9.054325659e-07
9.062897538e-07
9.070903766e-07
9.078378268e-07
9.085347792e-07
9.091833432e-07
9.097852453e-07
9.103421392e-07
9.108559793e-07
9.113303358e-07
9.118088384e-07
9.120373187e-07
8.828633218e-07
8.972728511e-07
2.286370823e-05
0.0001216249828
6.934346917e-07
7.842757622e-07
8.173293804e-07
8.360032467e-07
8.484706426e-07
8.57574918e-07
8.646096378e-07
8.702613424e-07
8.749335006e-07
8.788811584e-07
8.822746443e-07
8.852327017e-07
8.878410179e-07
8.90163205e-07
8.92247615e-07
8.941317446e-07
8.958451688e-07
8.974115549e-07
8.9885008e-07
9.001764454e-07
9.014036132e-07
9.025423517e-07
9.036016354e-07
9.045889549e-07
9.055105346e-07
9.063715101e-07
9.071760429e-07
9.079274271e-07
9.08628168e-07
9.092801015e-07
9.098845357e-07
9.10442522e-07
9.109552008e-07