/*--------------------------------*- C++ -*----------------------------------*\
| =========                 |                                                 |
| \\      /  F ield         | OpenFOAM: The Open Source CFD Toolbox           |
|  \\    /   O peration     | Version:  v1912                                 |
|   \\  /    A nd           | Website:  www.openfoam.com                      |
|    \\/     M anipulation  |                                                 |
\*---------------------------------------------------------------------------*/
FoamFile
{
    version     2.0;
    format      ascii;
    class       volScalarField;
    location    "0.2";
    object      nut.gas;
}
// * * * * * * * * * * * * * * * * * * * * * * * * * * * * * * * * * * * * * //

dimensions      [0 2 -1 0 0 0 0];


internalField   nonuniform List<scalar> 
4800
(
1.133798333e-08
2.061210603e-08
2.704138767e-08
3.227867142e-08
3.681354441e-08
4.0871093e-08
4.457715415e-08
4.80105991e-08
5.122478522e-08
5.425786071e-08
5.713828265e-08
5.988801618e-08
6.252451716e-08
6.506201839e-08
6.751241334e-08
6.98858844e-08
7.219137732e-08
7.443697598e-08
7.663022402e-08
7.877842176e-08
8.088892804e-08
8.296949683e-08
8.502868332e-08
8.707637172e-08
8.912449792e-08
9.118807485e-08
9.328671556e-08
9.54469581e-08
9.770593169e-08
1.001173434e-07
1.027616149e-07
1.057637825e-07
1.093266849e-07
1.137960869e-07
1.197978223e-07
1.285219311e-07
1.432241015e-07
1.620397173e-07
1.927440207e-07
4.949973638e-07
1.942209958e-08
3.582285544e-08
4.723376374e-08
5.653628419e-08
6.45921105e-08
7.179878271e-08
7.837891354e-08
8.447209522e-08
9.017270779e-08
9.554810531e-08
1.006483547e-07
1.055118815e-07
1.101689447e-07
1.14643885e-07
1.18956635e-07
1.23123771e-07
1.271592636e-07
1.310750309e-07
1.34881352e-07
1.385871862e-07
1.42200424e-07
1.457280916e-07
1.491765238e-07
1.525515208e-07
1.558584968e-07
1.591026486e-07
1.622891561e-07
1.654234648e-07
1.685117216e-07
1.715615087e-07
1.74583184e-07
1.775924893e-07
1.806160099e-07
1.837034759e-07
1.869591748e-07
1.905552277e-07
1.975392672e-07
1.418805843e-07
5.216709013e-07
1.549885022e-06
1.888946288e-08
3.480886836e-08
4.588338415e-08
5.491202277e-08
6.273115332e-08
6.972650332e-08
7.611402175e-08
8.202909717e-08
8.756325068e-08
9.278178272e-08
9.773322253e-08
1.024548033e-07
1.06975833e-07
1.113198737e-07
1.155062056e-07
1.195508444e-07
1.234672684e-07
1.272669505e-07
1.30959756e-07
1.345542469e-07
1.380579186e-07
1.414773887e-07
1.448185525e-07
1.480867142e-07
1.512867103e-07
1.544230292e-07
1.574999526e-07
1.605217407e-07
1.634929175e-07
1.664187556e-07
1.693061737e-07
1.721655201e-07
1.750143286e-07
1.778857179e-07
1.808491757e-07
1.839999654e-07
1.902081236e-07
1.384406396e-07
4.016391027e-07
1.879387839e-06
1.891917274e-08
3.486493464e-08
4.59577221e-08
5.500117363e-08
6.28330659e-08
6.983978509e-08
7.62376517e-08
8.216228892e-08
8.770537782e-08
9.293233417e-08
9.789177385e-08
1.026209975e-07
1.07149368e-07
1.115004924e-07
1.156936896e-07
1.197450094e-07
1.23667961e-07
1.274740465e-07
1.311731596e-07
1.347738914e-07
1.382837675e-07
1.417094385e-07
1.45056836e-07
1.48331307e-07
1.515377365e-07
1.546806711e-07
1.577644596e-07
1.607934382e-07
1.637722048e-07
1.667060737e-07
1.696018876e-07
1.72469559e-07
1.753251498e-07
1.781973018e-07
1.811414705e-07
1.842454391e-07
1.894537289e-07
1.194886149e-07
6.69121834e-07
2.049621945e-06
1.891699493e-08
3.486089826e-08
4.595237749e-08
5.499476107e-08
6.282572009e-08
6.98315932e-08
7.622867349e-08
8.215256627e-08
8.769493989e-08
9.292120048e-08
9.787995603e-08
1.026085005e-07
1.071361907e-07
1.114866278e-07
1.156791249e-07
1.19729726e-07
1.236519334e-07
1.274572419e-07
1.311555366e-07
1.347553977e-07
1.38264338e-07
1.416889911e-07
1.450352668e-07
1.48308482e-07
1.515134799e-07
1.546547463e-07
1.577365389e-07
1.607630499e-07
1.637386398e-07
1.666682104e-07
1.695578445e-07
1.724159683e-07
1.752555477e-07
1.780983657e-07
1.809835575e-07
1.839814489e-07
1.876650064e-07
1.495534655e-07
8.823846506e-07
2.123482362e-06
1.8916751e-08
3.48605131e-08
4.595187551e-08
5.499416059e-08
6.282502438e-08
6.983080098e-08
7.62277803e-08
8.215156517e-08
8.769382182e-08
9.291995438e-08
9.78785689e-08
1.026069573e-07
1.07134474e-07
1.114847179e-07
1.156769992e-07
1.197273586e-07
1.236492946e-07
1.274542972e-07
1.311522455e-07
1.347517126e-07
1.382602015e-07
1.416843334e-07
1.450300006e-07
1.483024965e-07
1.515066297e-07
1.546468351e-07
1.577272913e-07
1.607520641e-07
1.637253018e-07
1.666515341e-07
1.695361611e-07
1.723862945e-07
1.752122521e-07
1.780302526e-07
1.808673042e-07
1.837677507e-07
1.86964649e-07
1.847419142e-07
5.819945003e-07
2.153690036e-06
1.891640152e-08
3.485992891e-08
4.595110662e-08
5.499323893e-08
6.282396068e-08
6.982959908e-08
7.622643955e-08
8.215008165e-08
8.769218891e-08
9.291816311e-08
9.787660804e-08
1.026048134e-07
1.071321312e-07
1.114821579e-07
1.156742008e-07
1.197242973e-07
1.236459421e-07
1.274506205e-07
1.311482061e-07
1.347472645e-07
1.382552896e-07
1.416788902e-07
1.45023942e-07
1.482957149e-07
1.51498984e-07
1.546381342e-07
1.577172673e-07
1.607403262e-07
1.637112561e-07
1.666342371e-07
1.695140439e-07
1.723566295e-07
1.751700903e-07
1.779662635e-07
1.807633183e-07
1.835881774e-07
1.866341341e-07
1.803378328e-07
6.132445887e-07
2.173742671e-06
1.891606984e-08
3.485937825e-08
4.59503795e-08
5.499236668e-08
6.282295319e-08
6.982845979e-08
7.622516765e-08
8.214867321e-08
8.769063746e-08
9.291645992e-08
9.787474231e-08
1.026027722e-07
1.071298993e-07
1.114797179e-07
1.156715326e-07
1.197213776e-07
1.236427443e-07
1.274471136e-07
1.311443538e-07
1.34743024e-07
1.382506093e-07
1.416737073e-07
1.450181782e-07
1.482892703e-07
1.514917274e-07
1.546298882e-07
1.577077833e-07
1.607292435e-07
1.636980304e-07
1.666180149e-07
1.694934346e-07
1.72329284e-07
1.751319104e-07
1.779099062e-07
1.806753667e-07
1.834445497e-07
1.863520459e-07
1.80040218e-07
6.652144475e-07
2.189538219e-06
1.891574983e-08
3.485884941e-08
4.594967871e-08
5.499152538e-08
6.282198089e-08
6.982735984e-08
7.62239393e-08
8.214731272e-08
8.768913869e-08
9.291481457e-08
9.78729401e-08
1.026008008e-07
1.071277446e-07
1.114773633e-07
1.156689591e-07
1.197185636e-07
1.23639665e-07
1.274437401e-07
1.311406526e-07
1.347389556e-07
1.382461265e-07
1.416687527e-07
1.450126804e-07
1.482831382e-07
1.514848421e-07
1.546220891e-07
1.576988467e-07
1.607188467e-07
1.636856917e-07
1.666029909e-07
1.694745408e-07
1.723045792e-07
1.750981381e-07
1.778615126e-07
1.806028052e-07
1.833319926e-07
1.861336375e-07
1.811408072e-07
7.095660906e-07
2.198850882e-06
1.891544312e-08
3.485834524e-08
4.594900814e-08
5.499071977e-08
6.282104929e-08
6.982630548e-08
7.62227615e-08
8.214600795e-08
8.768770114e-08
9.29132364e-08
9.78712116e-08
1.025989105e-07
1.07125679e-07
1.114751071e-07
1.156664948e-07
1.197158711e-07
1.236367212e-07
1.274405189e-07
1.311371235e-07
1.347350828e-07
1.382418675e-07
1.41664056e-07
1.450074822e-07
1.482773579e-07
1.514783744e-07
1.546147926e-07
1.576905257e-07
1.607092214e-07
1.6367435e-07
1.665893071e-07
1.694575415e-07
1.722827168e-07
1.750689142e-07
1.778208636e-07
1.805441374e-07
1.832451623e-07
1.859692885e-07
1.828068921e-07
7.454185691e-07
2.202348285e-06
1.891515077e-08
3.485786758e-08
4.594837042e-08
5.498995307e-08
6.282016217e-08
6.982530105e-08
7.622163912e-08
8.214476432e-08
8.768633079e-08
9.2911732e-08
9.786956408e-08
1.025971091e-07
1.071237114e-07
1.11472959e-07
1.1566415e-07
1.197133114e-07
1.236339259e-07
1.274374641e-07
1.31133782e-07
1.347314228e-07
1.382378514e-07
1.416596386e-07
1.450026081e-07
1.48271957e-07
1.51472356e-07
1.546080357e-07
1.57682864e-07
1.607004197e-07
1.636640661e-07
1.665770314e-07
1.694424994e-07
1.722637134e-07
1.75044091e-07
1.777873312e-07
1.804974568e-07
1.831789808e-07
1.858446962e-07
1.845292708e-07
7.736041118e-07
2.206722779e-06
1.891487387e-08
3.485741826e-08
4.59477681e-08
5.49892284e-08
6.281932322e-08
6.982435074e-08
7.62205769e-08
8.21435871e-08
8.768503347e-08
9.291030776e-08
9.786800453e-08
1.025954044e-07
1.0712185e-07
1.114709279e-07
1.156619347e-07
1.197108953e-07
1.236312905e-07
1.274345883e-07
1.311306417e-07
1.347279903e-07
1.382340943e-07
1.416555182e-07
1.449980771e-07
1.482669562e-07
1.514668094e-07
1.546018426e-07
1.576758873e-07
1.606924673e-07
1.636548629e-07
1.665661748e-07
1.694293917e-07
1.722474593e-07
1.750233469e-07
1.777600968e-07
1.804608151e-07
1.83129081e-07
1.857459071e-07
1.860358789e-07
7.964411751e-07
2.215644052e-06
1.891461343e-08
3.485699898e-08
4.594720359e-08
5.498854875e-08
6.281853592e-08
6.982345854e-08
7.62195793e-08
8.214248124e-08
8.768381463e-08
9.290896966e-08
9.786653943e-08
1.025938032e-07
1.071201024e-07
1.114690222e-07
1.156598577e-07
1.197086323e-07
1.236288251e-07
1.274319022e-07
1.311277141e-07
1.347247976e-07
1.38230609e-07
1.416517079e-07
1.449939027e-07
1.482623692e-07
1.514617479e-07
1.545962255e-07
1.576696048e-07
1.606853677e-07
1.636467317e-07
1.665567039e-07
1.694181339e-07
1.722337633e-07
1.750062686e-07
1.777382868e-07
1.804324026e-07
1.830918124e-07
1.85660901e-07
1.872466513e-07
8.149533172e-07
2.220541948e-06
1.89143704e-08
3.485661131e-08
4.594667918e-08
5.498791691e-08
6.281780355e-08
6.98226282e-08
7.621865053e-08
8.214145138e-08
8.768267936e-08
9.290772322e-08
9.78651748e-08
1.025923122e-07
1.071184756e-07
1.114672492e-07
1.156579268e-07
1.197065307e-07
1.236265385e-07
1.274294149e-07
1.311250086e-07
1.347218541e-07
1.38227405e-07
1.41648217e-07
1.449900936e-07
1.482582034e-07
1.514571767e-07
1.545911856e-07
1.576640117e-07
1.606791055e-07
1.63639639e-07
1.665485526e-07
1.694086004e-07
1.722223886e-07
1.749924086e-07
1.777210566e-07
1.804106338e-07
1.830642374e-07
1.855802475e-07
1.881231852e-07
8.312585861e-07
2.226629864e-06
1.891414571e-08
3.48562567e-08
4.5946197e-08
5.498733549e-08
6.281712918e-08
6.982186321e-08
7.621779447e-08
8.214050185e-08
8.768163238e-08
9.290657357e-08
9.786391613e-08
1.025909371e-07
1.071169759e-07
1.114656155e-07
1.15656149e-07
1.197045976e-07
1.236244381e-07
1.27427134e-07
1.311225326e-07
1.347191671e-07
1.382244889e-07
1.416450512e-07
1.449866538e-07
1.482544603e-07
1.514530936e-07
1.545867153e-07
1.576590917e-07
1.606736511e-07
1.636335333e-07
1.665416335e-07
1.694006421e-07
1.722130793e-07
1.749813241e-07
1.777076349e-07
1.803941711e-07
1.830440532e-07
1.85496694e-07
1.886769098e-07
8.485698523e-07
2.230632663e-06
1.891394019e-08
3.48559365e-08
4.594575901e-08
5.498680692e-08
6.281651566e-08
6.982116679e-08
7.621701475e-08
8.213963659e-08
8.7680678e-08
9.290552536e-08
9.786276841e-08
1.025896833e-07
1.071156087e-07
1.114641268e-07
1.156545302e-07
1.197028392e-07
1.2362253e-07
1.274250653e-07
1.311202917e-07
1.347167413e-07
1.382218645e-07
1.416422127e-07
1.449835833e-07
1.482511366e-07
1.514494907e-07
1.545827998e-07
1.576548199e-07
1.606689642e-07
1.636283511e-07
1.665358463e-07
1.693940998e-07
1.722055796e-07
1.749725996e-07
1.776973443e-07
1.803819132e-07
1.83029482e-07
1.854050446e-07
1.888577224e-07
8.624694946e-07
2.234966419e-06
1.891375464e-08
3.485565192e-08
4.594536705e-08
5.498633343e-08
6.281596558e-08
6.982054192e-08
7.621631465e-08
8.213885924e-08
8.767982015e-08
9.290458279e-08
9.786173608e-08
1.025885555e-07
1.07114379e-07
1.114627883e-07
1.156530754e-07
1.197012604e-07
1.236208189e-07
1.274232132e-07
1.311182896e-07
1.347145797e-07
1.382195333e-07
1.41639701e-07
1.449808788e-07
1.482482252e-07
1.514463553e-07
1.545794187e-07
1.57651165e-07
1.606649977e-07
1.63624022e-07
1.665310853e-07
1.693888137e-07
1.721996454e-07
1.749658594e-07
1.776896038e-07
1.803729671e-07
1.830191641e-07
1.853011276e-07
1.887084273e-07
8.737744607e-07
2.23848447e-06
1.891358983e-08
3.4855404e-08
4.594502277e-08
5.498591706e-08
6.281548133e-08
6.98199913e-08
7.621569718e-08
8.213817306e-08
8.767906235e-08
9.290374962e-08
9.78608231e-08
1.025875577e-07
1.071132909e-07
1.114616041e-07
1.156517889e-07
1.196998652e-07
1.236193084e-07
1.274215808e-07
1.311165286e-07
1.347126833e-07
1.382174946e-07
1.41637513e-07
1.449785341e-07
1.482457156e-07
1.51443671e-07
1.545765477e-07
1.576480914e-07
1.606617005e-07
1.636204725e-07
1.665272447e-07
1.693846302e-07
1.721950519e-07
1.749607724e-07
1.776839243e-07
1.803666165e-07
1.830120597e-07
1.851814365e-07
1.883127106e-07
8.831521164e-07
2.241762807e-06
1.891344646e-08
3.48551937e-08
4.594472768e-08
5.498555963e-08
6.281506505e-08
6.981951735e-08
7.621516501e-08
8.213758098e-08
8.767840772e-08
9.290302913e-08
9.78600329e-08
1.025866935e-07
1.07112348e-07
1.114605777e-07
1.15650674e-07
1.196986567e-07
1.236180011e-07
1.274201699e-07
1.311150094e-07
1.347110514e-07
1.38215746e-07
1.416356438e-07
1.449765409e-07
1.482435948e-07
1.514414189e-07
1.545741598e-07
1.576455616e-07
1.606590202e-07
1.636176296e-07
1.665242223e-07
1.693814059e-07
1.721915967e-07
1.749570517e-07
1.776798995e-07
1.803622907e-07
1.830073742e-07
1.850432537e-07
1.879752335e-07
8.910360749e-07
2.244577545e-06
1.89133252e-08
3.485502179e-08
4.594448312e-08
5.498526278e-08
6.281471864e-08
6.981912221e-08
7.621472053e-08
8.213708555e-08
8.7677859e-08
9.29024242e-08
9.785936844e-08
1.025859659e-07
1.071115534e-07
1.11459712e-07
1.156497332e-07
1.196976369e-07
1.236168987e-07
1.274189814e-07
1.311137319e-07
1.347096823e-07
1.382142836e-07
1.41634087e-07
1.449748892e-07
1.482418485e-07
1.514395788e-07
1.545722269e-07
1.57643537e-07
1.606569045e-07
1.636154224e-07
1.665219223e-07
1.693790101e-07
1.721891014e-07
1.74954453e-07
1.77677195e-07
1.803595381e-07
1.830045069e-07
1.848925458e-07
1.877466207e-07
8.977191719e-07
2.24701421e-06
1.891322668e-08
3.485488892e-08
4.594429029e-08
5.498502795e-08
6.281444379e-08
6.981880778e-08
7.62143658e-08
8.213668899e-08
8.767741852e-08
9.290193727e-08
9.78588322e-08
1.025853773e-07
1.071109092e-07
1.114590092e-07
1.156489685e-07
1.196968075e-07
1.23616002e-07
1.274180152e-07
1.311126946e-07
1.347085732e-07
1.382131026e-07
1.41632835e-07
1.449735681e-07
1.482404614e-07
1.514381297e-07
1.545707208e-07
1.576419799e-07
1.606553032e-07
1.636137846e-07
1.665202564e-07
1.69377326e-07
1.721874106e-07
1.749527698e-07
1.776755374e-07
1.80358003e-07
1.830029853e-07
1.847552958e-07
1.875776467e-07
9.034467463e-07
2.249266567e-06
1.891315153e-08
3.485479556e-08
4.594415021e-08
5.498485639e-08
6.281424192e-08
6.981857566e-08
7.621410258e-08
8.21363932e-08
8.767708828e-08
9.290157036e-08
9.785842623e-08
1.025849297e-07
1.071104175e-07
1.114584708e-07
1.156483812e-07
1.196961692e-07
1.236153111e-07
1.274172706e-07
1.311118958e-07
1.347077205e-07
1.382121973e-07
1.416318796e-07
1.449725662e-07
1.482394177e-07
1.514370505e-07
1.545696137e-07
1.57640854e-07
1.606541691e-07
1.636126547e-07
1.665191452e-07
1.693762504e-07
1.721863909e-07
1.749518298e-07
1.776747051e-07
1.80357406e-07
1.830023888e-07
1.846325203e-07
1.874496745e-07
9.084017153e-07
2.251006298e-06
1.891310037e-08
3.485474201e-08
4.594406376e-08
5.498474912e-08
6.281411424e-08
6.98184272e-08
7.621393233e-08
8.213619974e-08
8.767686989e-08
9.290132514e-08
9.785815214e-08
1.025846247e-07
1.071100796e-07
1.114580981e-07
1.156479721e-07
1.196957223e-07
1.236148255e-07
1.274167461e-07
1.311113327e-07
1.347071202e-07
1.382115619e-07
1.416312124e-07
1.449718719e-07
1.482387021e-07
1.51436321e-07
1.545688793e-07
1.576401253e-07
1.606534587e-07
1.636119773e-07
1.66518518e-07
1.693756939e-07
1.721859289e-07
1.749514898e-07
1.776745189e-07
1.803575117e-07
1.830024554e-07
1.845222231e-07
1.873510935e-07
9.127083726e-07
2.252410043e-06
1.891307386e-08
3.485472839e-08
4.594403169e-08
5.4984707e-08
6.281406174e-08
6.98183635e-08
7.621385625e-08
8.213610985e-08
8.767676464e-08
9.290120288e-08
9.78580112e-08
1.025844634e-07
1.071098965e-07
1.114578918e-07
1.156477415e-07
1.196954667e-07
1.236145446e-07
1.274164401e-07
1.311110027e-07
1.34706768e-07
1.382111903e-07
1.416308251e-07
1.449714739e-07
1.482382998e-07
1.514359221e-07
1.545684931e-07
1.576397627e-07
1.606531327e-07
1.63611703e-07
1.665183132e-07
1.693755794e-07
1.72185929e-07
1.749516322e-07
1.776748346e-07
1.803581374e-07
1.830030032e-07
1.844225952e-07
1.872736688e-07
9.164726092e-07
2.253670217e-06
1.891307269e-08
3.485475461e-08
4.59440546e-08
5.49847307e-08
6.281408518e-08
6.98183854e-08
7.621387523e-08
8.213612449e-08
8.76767735e-08
9.290120453e-08
9.785800427e-08
1.025844467e-07
1.071098687e-07
1.114578522e-07
1.156476893e-07
1.196954017e-07
1.23614467e-07
1.274163506e-07
1.311109027e-07
1.347066596e-07
1.382110763e-07
1.416307096e-07
1.449713618e-07
1.482381972e-07
1.514358363e-07
1.54568433e-07
1.576397384e-07
1.606531564e-07
1.636117887e-07
1.665184775e-07
1.693758416e-07
1.721863116e-07
1.749521604e-07
1.776755367e-07
1.803591454e-07
1.830038877e-07
1.843320134e-07
1.872115928e-07
9.197851034e-07
2.254806727e-06
1.891309635e-08
3.485482149e-08
4.594413274e-08
5.498482066e-08
6.281418508e-08
6.981849348e-08
7.62139899e-08
8.21362443e-08
8.767689709e-08
9.290133068e-08
9.785813188e-08
1.025845748e-07
1.071099966e-07
1.114579792e-07
1.156478153e-07
1.196955267e-07
1.236145915e-07
1.274164756e-07
1.311110297e-07
1.347067906e-07
1.382112144e-07
1.416308583e-07
1.449715257e-07
1.482383817e-07
1.514360479e-07
1.545686791e-07
1.57640028e-07
1.606534995e-07
1.636121974e-07
1.665189659e-07
1.69376426e-07
1.72187011e-07
1.749529963e-07
1.77676533e-07
1.803604287e-07
1.830049976e-07
1.842490161e-07
1.871606734e-07
9.227222867e-07
2.255830163e-06
1.891314357e-08
3.48549303e-08
4.594426607e-08
5.498497707e-08
6.281436172e-08
6.981868807e-08
7.621420062e-08
8.213646961e-08
8.767713574e-08
9.29015816e-08
9.785839421e-08
1.025848478e-07
1.071102799e-07
1.114582725e-07
1.156481187e-07
1.196958405e-07
1.236149164e-07
1.274168127e-07
1.311113805e-07
1.347071572e-07
1.382115992e-07
1.416312645e-07
1.44971957e-07
1.482388425e-07
1.514365431e-07
1.545692146e-07
1.576406104e-07
1.606541366e-07
1.636128981e-07
1.665197407e-07
1.693772875e-07
1.721879739e-07
1.749540773e-07
1.776777513e-07
1.803619045e-07
1.830062466e-07
1.841722758e-07
1.871178589e-07
9.253492846e-07
2.256750188e-06
1.891321435e-08
3.485508105e-08
4.594445464e-08
5.498520003e-08
6.281461522e-08
6.981896928e-08
7.621450747e-08
8.213680052e-08
8.767748949e-08
9.290195728e-08
9.785879115e-08
1.025852656e-07
1.071107183e-07
1.114587316e-07
1.156485987e-07
1.19696342e-07
1.236154402e-07
1.274173598e-07
1.311119524e-07
1.347077555e-07
1.382122261e-07
1.416319223e-07
1.449726483e-07
1.482395702e-07
1.514373106e-07
1.545700254e-07
1.576414685e-07
1.606550466e-07
1.636138654e-07
1.665207718e-07
1.693783904e-07
1.721891582e-07
1.749553544e-07
1.776791351e-07
1.803635092e-07
1.830075672e-07
1.841005728e-07
1.870809543e-07
9.277230401e-07
2.257574978e-06
1.891330864e-08
3.485527365e-08
4.594469837e-08
5.498548945e-08
6.281494546e-08
6.981933699e-08
7.621491032e-08
8.213723685e-08
8.767795812e-08
9.290245743e-08
9.785932234e-08
1.025858276e-07
1.071113112e-07
1.114593556e-07
1.156492543e-07
1.196970299e-07
1.236161612e-07
1.274181149e-07
1.311127428e-07
1.347085826e-07
1.382130912e-07
1.416328268e-07
1.449735936e-07
1.482405577e-07
1.514383414e-07
1.545711006e-07
1.576425891e-07
1.606562137e-07
1.636150802e-07
1.665220362e-07
1.693797071e-07
1.721905315e-07
1.749567901e-07
1.776806416e-07
1.803651948e-07
1.830089072e-07
1.840327677e-07
1.87048379e-07
9.298936778e-07
2.258310997e-06
1.891342633e-08
3.485550789e-08
4.594499705e-08
5.498584507e-08
6.281535216e-08
6.981979088e-08
7.621540879e-08
8.213777816e-08
8.767854114e-08
9.290308149e-08
9.785998713e-08
1.025865332e-07
1.071120577e-07
1.114601436e-07
1.156500844e-07
1.196979028e-07
1.236170779e-07
1.274190763e-07
1.311137497e-07
1.347096358e-07
1.382141914e-07
1.416339743e-07
1.449747885e-07
1.482417995e-07
1.514396291e-07
1.545724324e-07
1.576439627e-07
1.606576262e-07
1.636165284e-07
1.66523517e-07
1.693812177e-07
1.721920703e-07
1.749583569e-07
1.776822391e-07
1.803669263e-07
1.830102263e-07
1.839677735e-07
1.870189796e-07
9.319064123e-07
2.258962897e-06
1.891356727e-08
3.485578346e-08
4.594535028e-08
5.498626646e-08
6.281583481e-08
6.982033038e-08
7.621600227e-08
8.213842378e-08
8.76792378e-08
9.290382863e-08
9.786078463e-08
1.025873812e-07
1.071129568e-07
1.114610945e-07
1.156510878e-07
1.196989595e-07
1.236181888e-07
1.274202422e-07
1.311149712e-07
1.347109132e-07
1.382155245e-07
1.416353625e-07
1.449762303e-07
1.482432925e-07
1.514411698e-07
1.545740163e-07
1.576455839e-07
1.606592775e-07
1.636182019e-07
1.665252039e-07
1.693829096e-07
1.721937593e-07
1.749600364e-07
1.776839061e-07
1.803686799e-07
1.830114945e-07
1.839045272e-07
1.869919169e-07
9.3380412e-07
2.259533442e-06
1.891373123e-08
3.485609993e-08
4.594575756e-08
5.4986753e-08
6.281639272e-08
6.98209547e-08
7.621668987e-08
8.213917275e-08
8.768004708e-08
9.290469778e-08
9.78617137e-08
1.025883706e-07
1.071140073e-07
1.114622068e-07
1.15652263e-07
1.197001986e-07
1.236194926e-07
1.274216114e-07
1.311164061e-07
1.347124136e-07
1.382170895e-07
1.416369902e-07
1.449779178e-07
1.482450355e-07
1.514429624e-07
1.545758509e-07
1.576474509e-07
1.606611656e-07
1.636200977e-07
1.665270932e-07
1.693847772e-07
1.721955908e-07
1.749618188e-07
1.776856301e-07
1.803704419e-07
1.830126907e-07
1.838419584e-07
1.869667868e-07
9.356320485e-07
2.260023304e-06
1.891391792e-08
3.485645678e-08
4.594621822e-08
5.498730391e-08
6.281702498e-08
6.982166284e-08
7.621747051e-08
8.214002389e-08
8.76809677e-08
9.290568759e-08
9.786277294e-08
1.025895e-07
1.071152076e-07
1.114634793e-07
1.156536087e-07
1.197016187e-07
1.23620988e-07
1.274231828e-07
1.311180534e-07
1.347141363e-07
1.382188859e-07
1.416388575e-07
1.449798516e-07
1.482470296e-07
1.514450086e-07
1.545779384e-07
1.576495663e-07
1.60663293e-07
1.636222187e-07
1.66529187e-07
1.693868222e-07
1.721975652e-07
1.749637024e-07
1.776874076e-07
1.803722081e-07
1.830138019e-07
1.837789495e-07
1.869439012e-07
9.374463189e-07
2.260432946e-06
1.8914127e-08
3.485685337e-08
4.594673145e-08
5.498791822e-08
6.28177305e-08
6.982245359e-08
7.621834285e-08
8.214097577e-08
8.768199814e-08
9.290679647e-08
9.786396071e-08
1.025907675e-07
1.071165562e-07
1.114649101e-07
1.156551234e-07
1.197032185e-07
1.236226739e-07
1.274249554e-07
1.311199128e-07
1.347160813e-07
1.382209144e-07
1.416409658e-07
1.44982034e-07
1.482492782e-07
1.514473127e-07
1.545802842e-07
1.576519369e-07
1.606656676e-07
1.636245733e-07
1.665314945e-07
1.693890535e-07
1.721996906e-07
1.749656941e-07
1.776892434e-07
1.803739834e-07
1.830148224e-07
1.837142894e-07
1.869248505e-07
9.393288453e-07
2.260695053e-06
1.891435808e-08
3.485728897e-08
4.59472963e-08
5.498859481e-08
6.281850799e-08
6.982332549e-08
7.621930531e-08
8.214202668e-08
8.768313663e-08
9.290802256e-08
9.786527509e-08
1.025921714e-07
1.07118051e-07
1.114664977e-07
1.156568054e-07
1.197049966e-07
1.236245493e-07
1.274269288e-07
1.311219841e-07
1.347182495e-07
1.382231767e-07
1.416433178e-07
1.44984469e-07
1.482517867e-07
1.514498818e-07
1.545828975e-07
1.576545735e-07
1.606683022e-07
1.63627176e-07
1.665340313e-07
1.693914873e-07
1.722019835e-07
1.749678094e-07
1.776911516e-07
1.80375782e-07
1.830157526e-07
1.83646631e-07
1.869100986e-07
9.412950075e-07
2.261360164e-06
1.89146107e-08
3.485776272e-08
4.594791169e-08
5.498933238e-08
6.281935596e-08
6.98242769e-08
7.622035609e-08
8.214317471e-08
8.768438112e-08
9.290936374e-08
9.786671394e-08
1.025937094e-07
1.071196901e-07
1.114682399e-07
1.156586529e-07
1.197069514e-07
1.23626613e-07
1.274291024e-07
1.311242677e-07
1.347206418e-07
1.382256752e-07
1.416459174e-07
1.449871622e-07
1.482545627e-07
1.514527261e-07
1.545857907e-07
1.576574914e-07
1.606712148e-07
1.636300476e-07
1.665368206e-07
1.693941485e-07
1.72204469e-07
1.749700731e-07
1.776931557e-07
1.803776277e-07
1.830165977e-07
1.835744565e-07
1.868994862e-07
9.433764797e-07
2.262632866e-06
1.891488434e-08
3.485827367e-08
4.59485764e-08
5.499012946e-08
6.282027273e-08
6.982530593e-08
7.622149315e-08
8.214441765e-08
8.76857293e-08
9.291081761e-08
9.786827479e-08
1.025953791e-07
1.07121471e-07
1.114701346e-07
1.156606639e-07
1.197090812e-07
1.236288638e-07
1.274314756e-07
1.311267638e-07
1.3472326e-07
1.382284127e-07
1.416487693e-07
1.449901204e-07
1.482576158e-07
1.514558579e-07
1.5458898e-07
1.576607105e-07
1.606744294e-07
1.636332159e-07
1.665398935e-07
1.693970711e-07
1.72207183e-07
1.749725211e-07
1.776952899e-07
1.803795548e-07
1.830173671e-07
1.834962254e-07
1.868985399e-07
9.456247798e-07
2.26197239e-06
1.891517842e-08
3.485882077e-08
4.594928904e-08
5.499098439e-08
6.28212564e-08
6.982641049e-08
7.622271418e-08
8.214575305e-08
8.768717857e-08
9.291238147e-08
9.786995487e-08
1.025971777e-07
1.07123391e-07
1.114721791e-07
1.156628361e-07
1.197113842e-07
1.236313004e-07
1.274340479e-07
1.31129473e-07
1.347261057e-07
1.382313928e-07
1.416518791e-07
1.449933521e-07
1.482609574e-07
1.514592925e-07
1.545924847e-07
1.576642551e-07
1.606779754e-07
1.636367156e-07
1.665432904e-07
1.694002998e-07
1.722101732e-07
1.749752022e-07
1.776976016e-07
1.8038161e-07
1.830180744e-07
1.83410072e-07
1.869133804e-07
9.483116437e-07
2.263280362e-06
1.891549232e-08
3.485940284e-08
4.59500481e-08
5.499189537e-08
6.282230488e-08
6.982758823e-08
7.622401663e-08
8.214717814e-08
8.7688726e-08
9.291405225e-08
9.787175105e-08
1.025991021e-07
1.07125447e-07
1.114743704e-07
1.156651668e-07
1.197138581e-07
1.236339211e-07
1.274368185e-07
1.311323955e-07
1.347291809e-07
1.382346193e-07
1.416552531e-07
1.449968664e-07
1.482646005e-07
1.514630475e-07
1.545963279e-07
1.576681543e-07
1.606818888e-07
1.636405902e-07
1.665470616e-07
1.694038919e-07
1.722135022e-07
1.749781814e-07
1.777001546e-07
1.803838558e-07
1.830187357e-07
1.833137799e-07
1.869441355e-07
9.510295654e-07
2.260992638e-06
1.891582534e-08
3.486001862e-08
4.595085192e-08
5.499286038e-08
6.282341587e-08
6.982883657e-08
7.622539767e-08
8.214868987e-08
8.769036835e-08
9.291582657e-08
9.787365985e-08
1.026011487e-07
1.071276355e-07
1.114767053e-07
1.156676528e-07
1.197165002e-07
1.23636724e-07
1.274397863e-07
1.311355316e-07
1.347324872e-07
1.382380961e-07
1.41658898e-07
1.450006736e-07
1.482685598e-07
1.514671428e-07
1.546005357e-07
1.57672442e-07
1.606862122e-07
1.636448918e-07
1.665512695e-07
1.694079198e-07
1.722172504e-07
1.749815442e-07
1.777030344e-07
1.803863763e-07
1.830193757e-07
1.832064154e-07
1.870108349e-07
9.543074277e-07
2.263535552e-06
1.891617674e-08
3.486066673e-08
4.595169871e-08
5.499387726e-08
6.282458686e-08
6.983015271e-08
7.622685421e-08
8.215028491e-08
8.769210207e-08
9.29177007e-08
9.787567739e-08
1.026033137e-07
1.071299525e-07
1.114791799e-07
1.156702907e-07
1.197193074e-07
1.236397064e-07
1.274429497e-07
1.311388808e-07
1.347360261e-07
1.382418268e-07
1.416628204e-07
1.450047842e-07
1.482728507e-07
1.514716001e-07
1.546051378e-07
1.576771569e-07
1.606909953e-07
1.63649683e-07
1.665559907e-07
1.694124736e-07
1.722215213e-07
1.749854033e-07
1.77706357e-07
1.803892876e-07
1.830200446e-07
1.830846373e-07
1.870797657e-07
9.574300984e-07
2.258982766e-06
1.89165457e-08
3.486134568e-08
4.59525865e-08
5.499494367e-08
6.282581515e-08
6.98315336e-08
7.62283829e-08
8.215195963e-08
8.769392328e-08
9.291967055e-08
9.78777994e-08
1.026055925e-07
1.071323937e-07
1.114817898e-07
1.156730763e-07
1.197222759e-07
1.236428653e-07
1.274463063e-07
1.311424422e-07
1.347397984e-07
1.382458148e-07
1.416670269e-07
1.45009209e-07
1.482774894e-07
1.514764427e-07
1.546101661e-07
1.576823424e-07
1.606962953e-07
1.636550373e-07
1.665613172e-07
1.694176657e-07
1.722264468e-07
1.749899076e-07
1.777102808e-07
1.803927508e-07
1.830208041e-07
1.829495277e-07
1.872098906e-07
9.610003407e-07
2.260059622e-06
1.891693136e-08
3.48620539e-08
4.595351324e-08
5.499605709e-08
6.282709785e-08
6.983297597e-08
7.622998014e-08
8.215371012e-08
8.769582778e-08
9.292173167e-08
9.788002123e-08
1.026079804e-07
1.071349542e-07
1.114845302e-07
1.156760047e-07
1.197254012e-07
1.236461967e-07
1.274498532e-07
1.31146214e-07
1.347438041e-07
1.382500625e-07
1.416715231e-07
1.450139582e-07
1.482824923e-07
1.514816947e-07
1.546156553e-07
1.576880462e-07
1.607021768e-07
1.636610401e-07
1.665673596e-07
1.694236352e-07
1.722321959e-07
1.749952544e-07
1.777150251e-07
1.803970021e-07
1.830218106e-07
1.827963942e-07
1.873375973e-07
9.643997543e-07
2.256586016e-06
1.891733282e-08
3.486278973e-08
4.595447674e-08
5.499721488e-08
6.282843186e-08
6.983447637e-08
7.623164207e-08
8.215553217e-08
8.769781104e-08
9.292387923e-08
9.78823378e-08
1.026104721e-07
1.071376285e-07
1.114873956e-07
1.156790707e-07
1.197286782e-07
1.236496959e-07
1.274535864e-07
1.311501933e-07
1.347480419e-07
1.38254571e-07
1.416763138e-07
1.450190411e-07
1.482878749e-07
1.514873804e-07
1.54621641e-07
1.576943197e-07
1.607087114e-07
1.636677891e-07
1.665742484e-07
1.694305521e-07
1.722389841e-07
1.750017062e-07
1.77720896e-07
1.804023813e-07
1.830232955e-07
1.826297914e-07
1.87508495e-07
9.674198564e-07
2.253370281e-06
1.891774912e-08
3.486355142e-08
4.59554747e-08
5.499841424e-08
6.282981394e-08
6.983603108e-08
7.623336462e-08
8.215742131e-08
8.769986823e-08
9.292610805e-08
9.788474361e-08
1.026130619e-07
1.071404106e-07
1.114903797e-07
1.156822679e-07
1.197321008e-07
1.236533571e-07
1.274575007e-07
1.31154376e-07
1.347525093e-07
1.382593399e-07
1.416814017e-07
1.45024465e-07
1.482936511e-07
1.514935227e-07
1.546281593e-07
1.577012163e-07
1.607159767e-07
1.636753943e-07
1.665821359e-07
1.694386234e-07
1.722470852e-07
1.750096136e-07
1.777283228e-07
1.804094068e-07
1.830257017e-07
1.824412511e-07
1.876594368e-07
9.70241577e-07
2.249208551e-06
1.891817927e-08
3.486433717e-08
4.595650471e-08
5.499965222e-08
6.283124064e-08
6.983763622e-08
7.623514342e-08
8.215937277e-08
8.770199417e-08
9.292841257e-08
9.788723275e-08
1.026157434e-07
1.071432939e-07
1.114934758e-07
1.156855894e-07
1.197356617e-07
1.236571733e-07
1.274615894e-07
1.311587561e-07
1.347572015e-07
1.382643667e-07
1.416867872e-07
1.450302348e-07
1.482998321e-07
1.515001425e-07
1.546352444e-07
1.577087899e-07
1.607240543e-07
1.636839764e-07
1.665911973e-07
1.694480976e-07
1.722568439e-07
1.750194413e-07
1.777379099e-07
1.804188332e-07