/*--------------------------------*- C++ -*----------------------------------*\
| =========                 |                                                 |
| \\      /  F ield         | OpenFOAM: The Open Source CFD Toolbox           |
|  \\    /   O peration     | Version:  v1912                                 |
|   \\  /    A nd           | Website:  www.openfoam.com                      |
|    \\/     M anipulation  |                                                 |
\*---------------------------------------------------------------------------*/
FoamFile
{
    version     2.0;
    format      ascii;
    class       volScalarField;
    location    "0.2";
    object      p;
}
// * * * * * * * * * * * * * * * * * * * * * * * * * * * * * * * * * * * * * //

dimensions      [1 -1 -2 0 0 0 0];


internalField   nonuniform List<scalar> 
4800
(
101379.5876
101379.5862
101379.5831
101379.5784
101379.572
101379.5641
101379.5544
101379.543
101379.5299
101379.5149
101379.4981
101379.4794
101379.4586
101379.4358
101379.4108
101379.3835
101379.3537
101379.3215
101379.2865
101379.2487
101379.208
101379.1639
101379.1165
101379.0654
101379.0104
101378.951
101378.8871
101378.8182
101378.7439
101378.6636
101378.5768
101378.4828
101378.381
101378.2707
101378.1511
101378.0219
101377.8831
101377.735
101377.6076
101377.3881
101364.8751
101364.8737
101364.8707
101364.866
101364.8596
101364.8516
101364.842
101364.8307
101364.8175
101364.8026
101364.7859
101364.7672
101364.7465
101364.7237
101364.6987
101364.6715
101364.6418
101364.6096
101364.5748
101364.5371
101364.4964
101364.4525
101364.4052
101364.3543
101364.2994
101364.2403
101364.1766
101364.1079
101364.0338
101363.9537
101363.8672
101363.7736
101363.672
101363.5619
101363.4422
101363.3123
101363.1715
101363.0198
101362.8718
101362.6693
101350.1641
101350.1627
101350.1597
101350.155
101350.1487
101350.1407
101350.1311
101350.1198
101350.1068
101350.092
101350.0753
101350.0567
101350.0361
101350.0134
101349.9885
101349.9614
101349.9319
101349.8999
101349.8652
101349.8278
101349.7873
101349.7436
101349.6966
101349.646
101349.5914
101349.5326
101349.4693
101349.4011
101349.3275
101349.248
101349.1621
101349.0691
101348.9682
101348.8585
101348.7389
101348.6082
101348.4646
101348.3057
101348.1311
101347.8609
101335.4545
101335.4532
101335.4501
101335.4455
101335.4392
101335.4313
101335.4218
101335.4106
101335.3976
101335.3829
101335.3663
101335.3478
101335.3274
101335.3049
101335.2802
101335.2533
101335.224
101335.1922
101335.1578
101335.1207
101335.0805
101335.0372
101334.9906
101334.9404
101334.8863
101334.8281
101334.7654
101334.6979
101334.6251
101334.5464
101334.4614
101334.3694
101334.2695
101334.1607
101334.0417
101333.9106
101333.7646
101333.5988
101333.4018
101333.0972
101320.7464
101320.745
101320.742
101320.7374
101320.7312
101320.7234
101320.7139
101320.7028
101320.69
101320.6754
101320.659
101320.6407
101320.6204
101320.5981
101320.5737
101320.5471
101320.5181
101320.4866
101320.4526
101320.4158
101320.3761
101320.3333
101320.2872
101320.2376
101320.1842
101320.1267
101320.0648
101319.9982
101319.9264
101319.8489
101319.7652
101319.6745
101319.576
101319.4687
101319.3509
101319.2206
101319.074
101318.905
101318.6981
101318.3936
101306.0396
101306.0383
101306.0353
101306.0307
101306.0246
101306.0169
101306.0076
101305.9966
101305.9839
101305.9695
101305.9532
101305.9352
101305.9152
101305.8931
101305.869
101305.8427
101305.8141
101305.7831
101305.7495
101305.7132
101305.674
101305.6318
101305.5864
101305.5375
101305.4849
101305.4283
101305.3675
101305.302
101305.2314
101305.1554
101305.0732
101304.9843
101304.8878
101304.7825
101304.6669
101304.5387
101304.3939
101304.2264
101304.022
101303.7439
101291.3343
101291.3329
101291.33
101291.3255
101291.3195
101291.3118
101291.3026
101291.2918
101291.2793
101291.2651
101291.2491
101291.2313
101291.2116
101291.1899
101291.1661
101291.1402
101291.112
101291.0815
101291.0484
101291.0127
101290.9742
101290.9327
101290.888
101290.84
101290.7884
101290.7329
101290.6732
101290.6091
101290.5401
101290.4657
101290.3855
101290.2988
101290.2047
101290.1022
101289.9898
101289.8651
101289.7247
101289.5631
101289.37
101289.1284
101276.6303
101276.629
101276.6261
101276.6217
101276.6157
101276.6082
101276.5992
101276.5885
101276.5763
101276.5623
101276.5466
101276.5291
101276.5097
101276.4884
101276.465
101276.4396
101276.4119
101276.3819
101276.3494
101276.3144
101276.2766
101276.2359
101276.1922
101276.1451
101276.0946
101276.0404
101275.9821
101275.9195
101275.8522
101275.7798
101275.7019
101275.6177
101275.5266
101275.4276
101275.3192
101275.1996
101275.0659
101274.9137
101274.737
101274.5306
101261.9277
101261.9264
101261.9235
101261.9192
101261.9134
101261.906
101261.8972
101261.8867
101261.8747
101261.861
101261.8456
101261.8284
101261.8094
101261.7885
101261.7656
101261.7407
101261.7136
101261.6842
101261.6524
101261.6181
101261.5812
101261.5414
101261.4987
101261.4528
101261.4035
101261.3506
101261.2939
101261.2331
101261.1677
101261.0976
101261.0222
101260.9409
101260.8532
101260.7583
101260.6548
101260.5415
101260.4161
101260.2758
101260.1178
101259.9447
101247.2264
101247.2251
101247.2223
101247.2181
101247.2124
101247.2052
101247.1965
101247.1863
101247.1745
101247.1611
101247.1461
101247.1293
101247.1107
101247.0903
101247.0679
101247.0436
101247.0171
101246.9884
101246.9574
101246.924
101246.8879
101246.8492
101246.8076
101246.7629
101246.715
101246.6636
101246.6086
101246.5496
101246.4865
101246.4188
101246.3461
101246.2682
101246.1843
101246.0938
101245.996
101245.8897
101245.7738
101245.6469
101245.5085
101245.3682
101232.5264
101232.5251
101232.5224
101232.5183
101232.5127
101232.5057
101232.4973
101232.4873
101232.4758
101232.4627
101232.448
101232.4317
101232.4136
101232.3937
101232.3719
101232.3482
101232.3224
101232.2945
101232.2643
101232.2317
101232.1967
101232.1591
101232.1187
101232.0753
101232.0289
101231.9792
101231.926
101231.8691
101231.8083
101231.7432
101231.6736
101231.5991
101231.5193
101231.4338
101231.342
101231.2434
101231.1375
101231.0242
101230.9055
101230.798
101217.8276
101217.8264
101217.8238
101217.8198
101217.8144
101217.8075
101217.7993
101217.7896
101217.7784
101217.7657
101217.7515
101217.7356
101217.718
101217.6986
101217.6775
101217.6544
101217.6294
101217.6023
101217.573
101217.5414
101217.5075
101217.471
101217.4319
101217.39
101217.3452
101217.2973
101217.246
101217.1913
101217.1329
101217.0707
101217.0043
101216.9335
101216.858
101216.7776
101216.6921
101216.6012
101216.5052
101216.405
101216.3036
101216.2218
101203.1301
101203.129
101203.1264
101203.1225
101203.1173
101203.1107
101203.1027
101203.0933
101203.0824
101203.0701
101203.0563
101203.0409
101203.0238
101203.0051
101202.9846
101202.9623
101202.938
101202.9118
101202.8835
101202.853
101202.8202
101202.785
101202.7473
101202.7069
101202.6638
101202.6177
101202.5685
101202.5161
101202.4603
101202.4009
101202.3379
101202.2709
101202.1999
101202.1248
101202.0455
101201.9623
101201.8758
101201.7873
101201.7005
101201.6368
101188.4338
101188.4327
101188.4302
101188.4264
101188.4214
101188.415
101188.4073
101188.3982
101188.3877
101188.3758
101188.3625
101188.3476
101188.3311
101188.313
101188.2932
101188.2717
101188.2483
101188.223
101188.1957
101188.1663
101188.1348
101188.1009
101188.0646
101188.0259
101187.9845
101187.9403
101187.8933
101187.8433
101187.7902
101187.7338
101187.6741
101187.611
101187.5445
101187.4746
101187.4016
101187.3258
101187.248
101187.1699
101187.095
101187.0468
101173.7387
101173.7376
101173.7352
101173.7316
101173.7267
101173.7205
101173.7131
101173.7044
101173.6943
101173.6828
101173.6699
101173.6556
101173.6398
101173.6224
101173.6033
101173.5826
101173.5601
101173.5358
101173.5096
101173.4814
101173.4511
101173.4186
101173.3839
101173.3468
101173.3072
101173.2651
101173.2203
101173.1727
101173.1223
101173.069
101173.0128
101172.9536
101172.8916
101172.8268
101172.7597
101172.6908
101172.6212
101172.5522
101172.4872
101172.4527
101159.0446
101159.0436
101159.0413
101159.0378
101159.0331
101159.0272
101159.0201
101159.0117
101159.002
101158.991
101158.9787
101158.9649
101158.9497
101158.933
101158.9148
101158.8949
101158.8734
101158.8501
101158.825
101158.7981
101158.7691
101158.7381
101158.7049
101158.6695
101158.6318
101158.5918
101158.5492
101158.5042
101158.4566
101158.4064
101158.3536
101158.2983
101158.2406
101158.1808
101158.1194
101158.057
101157.9946
101157.9338
101157.8775
101157.8535
101144.3517
101144.3507
101144.3485
101144.3451
101144.3407
101144.335
101144.3282
101144.3202
101144.3109
101144.3004
101144.2886
101144.2755
101144.261
101144.245
101144.2276
101144.2087
101144.1881
101144.1659
101144.142
101144.1163
101144.0887
101144.0592
101144.0276
101143.994
101143.9583
101143.9203
101143.8801
101143.8376
101143.7928
101143.7456
101143.6963
101143.6448
101143.5914
101143.5364
101143.4802
101143.4238
101143.368
101143.3143
101143.2656
101143.2496
101129.6597
101129.6588
101129.6567
101129.6535
101129.6493
101129.6439
101129.6374
101129.6298
101129.621
101129.611
101129.5997
101129.5872
101129.5734
101129.5583
101129.5417
101129.5237
101129.5042
101129.4831
101129.4604
101129.436
101129.4098
101129.3818
101129.352
101129.3202
101129.2864
101129.2506
101129.2127
101129.1727
101129.1307
101129.0866
101129.0406
101128.9928
101128.9435
101128.893
101128.8419
101128.7909
101128.7409
101128.6934
101128.651
101128.64
101114.9687
101114.9678
101114.9659
101114.9629
101114.9588
101114.9537
101114.9476
101114.9404
101114.932
101114.9226
101114.9119
101114.9001
101114.887
101114.8727
101114.857
101114.84
101114.8215
101114.8016
101114.7801
101114.757
101114.7323
101114.7059
101114.6778
101114.6478
101114.6161
101114.5824
101114.5469
101114.5095
101114.4702
101114.4291
101114.3864
101114.3422
101114.2969
101114.2506
101114.2041
101114.158
101114.1133
101114.0711
101114.0338
101114.0275
101100.2787
101100.2779
101100.276
101100.2732
101100.2694
101100.2646
101100.2588
101100.252
101100.2441
101100.2352
101100.2252
101100.214
101100.2017
101100.1882
101100.1734
101100.1574
101100.14
101100.1213
101100.1011
101100.0794
101100.0562
101100.0314
101100.005
101099.9769
101099.9472
101099.9157
101099.8825
101099.8476
101099.8111
101099.773
101099.7335
101099.6928
101099.6511
101099.6089
101099.5667
101099.5251
101099.4849
101099.4473
101099.4143
101099.4114
101085.5895
101085.5887
101085.587
101085.5843
101085.5808
101085.5763
101085.5708
101085.5645
101085.5571
101085.5488
101085.5394
101085.5289
101085.5174
101085.5048
101085.491
101085.4759
101085.4597
101085.4421
101085.4233
101085.403
101085.3813
101085.3582
101085.3335
101085.3074
101085.2796
101085.2503
101085.2195
101085.1872
101085.1533
101085.1182
101085.0818
101085.0444
101085.0062
101084.9678
101084.9295
101084.8919
101084.8559
101084.8222
101084.7928
101084.7929
101070.9012
101070.9004
101070.8988
101070.8963
101070.893
101070.8888
101070.8838
101070.8778
101070.871
101070.8632
101070.8545
101070.8448
101070.8341
101070.8223
101070.8095
101070.7955
101070.7804
101070.7641
101070.7465
101070.7277
101070.7076
101070.6861
101070.6633
101070.639
101070.6133
101070.5862
101070.5577
101070.5279
101070.4967
101070.4643
101070.431
101070.3967
101070.362
101070.327
101070.2923
101070.2585
101070.2261
101070.1959
101070.1696
101070.1725
101056.2136
101056.2129
101056.2114
101056.2091
101056.206
101056.2022
101056.1975
101056.192
101056.1857
101056.1785
101056.1705
101056.1615
101056.1516
101056.1408
101056.1289
101056.116
101056.1021
101056.087
101056.0709
101056.0535
101056.0349
101056.0151
101055.9941
101055.9718
101055.9481
101055.9232
101055.897
101055.8696
101055.8411
101055.8115
101055.781
101055.7498
101055.7182
101055.6866
101055.6552
101055.6247
101055.5956
101055.5685
101055.5449
101055.5503
101041.5266
101041.526
101041.5247
101041.5226
101041.5198
101041.5162
101041.512
101041.5069
101041.5012
101041.4946
101041.4872
101041.479
101041.47
101041.46
101041.4492
101041.4374
101041.4247
101041.4109
101041.3961
101041.3802
101041.3633
101041.3452
101041.3259
101041.3055
101041.284
101041.2612
101041.2373
101041.2124
101041.1864
101041.1595
101041.1318
101041.1035
101041.075
101041.0464
101041.0181
101040.9907
101040.9645
101040.9402
101040.919
101040.9267
101026.8404
101026.8398
101026.8386
101026.8367
101026.8342
101026.831
101026.8271
101026.8226
101026.8173
101026.8114
101026.8047
101026.7973
101026.7891
101026.7801
101026.7703
101026.7596
101026.7481
101026.7356
101026.7222
101026.7079
101026.6925
101026.6761
101026.6587
101026.6402
101026.6207
101026.6001
101026.5786
101026.556
101026.5325
101026.5082
101026.4833
101026.4578
101026.4321
101026.4064
101026.381
101026.3564
101026.3329
101026.3111
101026.2921
101026.3018
101012.1547
101012.1542
101012.1531
101012.1514
101012.1491
101012.1463
101012.1428
101012.1388
101012.1341
101012.1288
101012.1228
101012.1162
101012.1089
101012.1008
101012.0921
101012.0825
101012.0722
101012.0611
101012.0491
101012.0363
101012.0225
101012.0079
101011.9923
101011.9758
101011.9583
101011.9399
101011.9206
101011.9004
101011.8794
101011.8576
101011.8353
101011.8125
101011.7895
101011.7665
101011.7439
101011.7218
101011.7008
101011.6812
101011.6641
101011.6757
100997.4695
100997.4691
100997.4681
100997.4666
100997.4646
100997.4621
100997.4591
100997.4555
100997.4514
100997.4468
100997.4415
100997.4357
100997.4293
100997.4222
100997.4145
100997.4061
100997.397
100997.3873
100997.3767
100997.3654
100997.3533
100997.3404
100997.3267
100997.3121
100997.2967
100997.2804
100997.2633
100997.2455
100997.2269
100997.2076
100997.1878
100997.1676
100997.1472
100997.1268
100997.1067
100997.0871
100997.0683
100997.0507
100997.0354
100997.0487
100982.7848
100982.7845
100982.7836
100982.7823
100982.7806
100982.7785
100982.7759
100982.7728
100982.7693
100982.7652
100982.7607
100982.7557
100982.7502
100982.7441
100982.7375
100982.7303
100982.7225
100982.714
100982.7049
100982.6952
100982.6847
100982.6736
100982.6617
100982.649
100982.6357
100982.6216
100982.6067
100982.5912
100982.5749
100982.5581
100982.5408
100982.5231
100982.5052
100982.4873
100982.4695
100982.4521
100982.4354
100982.4197
100982.4059
100982.4208
100968.1005
100968.1002
100968.0995
100968.0984
100968.097
100968.0952
100968.093
100968.0905
100968.0875
100968.0842
100968.0804
100968.0762
100968.0716
100968.0665
100968.061
100968.0549
100968.0484
100968.0413
100968.0337
100968.0255
100968.0167
100968.0073
100967.9973
100967.9866
100967.9753
100967.9633
100967.9507
100967.9374
100967.9235
100967.9091
100967.8943
100967.879
100967.8635
100967.8479
100967.8323
100967.8171
100967.8023
100967.7883
100967.7759
100967.7922
100953.4165
100953.4163
100953.4157
100953.4149
100953.4137
100953.4123
100953.4105
100953.4085
100953.4061
100953.4034
100953.4004
100953.3971
100953.3933
100953.3893
100953.3848
100953.38
100953.3747
100953.369
100953.3629
100953.3562
100953.3491
100953.3415
100953.3333
100953.3246
100953.3154
100953.3055
100953.2951
100953.2841
100953.2726
100953.2606
100953.2481
100953.2352
100953.222
100953.2086
100953.1952
100953.182
100953.169
100953.1566
100953.1455
100953.1631
100938.7328
100938.7326
100938.7322
100938.7315
100938.7307
100938.7296
100938.7283
100938.7268
100938.725
100938.723
100938.7207
100938.7182
100938.7154
100938.7124
100938.709
100938.7054
100938.7014
100938.6971
100938.6924
100938.6874
100938.6819
100938.6761
100938.6698
100938.6631
100938.6559
100938.6482
100938.64
100938.6313
100938.6221
100938.6124
100938.6022
100938.5916
100938.5807
100938.5696
100938.5582
100938.5469
100938.5356
100938.5247
100938.5147
100938.5337
100924.0493
100924.0491
100924.0489
100924.0484
100924.0479
100924.0471
100924.0463
100924.0453
100924.0441
100924.0427
100924.0412
100924.0396
100924.0377
100924.0357
100924.0334
100924.031
100924.0283
100924.0254
100924.0222
100924.0188
100924.0151
100924.011
100924.0066
100924.0019
100923.9968
100923.9912
100923.9852
100923.9788
100923.9719
100923.9645
100923.9567
100923.9484
100923.9397
100923.9307
100923.9214
100923.9119
100923.9023
100923.8927
100923.8839
100923.9042
100909.3659
100909.3658
100909.3657
100909.3654
100909.3652
100909.3648
100909.3644
100909.3639
100909.3633
100909.3627
100909.3619
100909.3611
100909.3602
100909.3592
100909.358
100909.3568
100909.3554
100909.3539
100909.3523
100909.3505
100909.3484
100909.3462
100909.3437
100909.341
100909.3379
100909.3345
100909.3308
100909.3266
100909.322
100909.317
100909.3115
100909.3055
100909.299
100909.2921
100909.2847
100909.277
100909.269
100909.2608
100909.253
100909.2748
100894.6825
100894.6825
100894.6825
100894.6825
100894.6825
100894.6826
100894.6826
100894.6826
100894.6826
100894.6826
100894.6827
100894.6827
100894.6827
100894.6827
100894.6827
100894.6827
100894.6827
100894.6826
100894.6824
100894.6822
100894.6819
100894.6815
100894.6809
100894.6802
100894.6792
100894.678
100894.6765
100894.6747
100894.6724
100894.6697
100894.6666
100894.6628
100894.6586
100894.6537
100894.6483
100894.6424
100894.6359
100894.629
100894.6223
100894.6461
100879.9992
100879.9992
100879.9994
100879.9996
100879.9999
100880.0003
100880.0007
100880.0013
100880.0019
100880.0026
100880.0034
100880.0043
100880.0052
100880.0063
100880.0074
100880.0086
100880.0099
100880.0112
100880.0126
100880.014
100880.0155
100880.0169
100880.0182
100880.0195
100880.0207
100880.0217
100880.0225
100880.023
100880.0231
100880.0227
100880.0219
100880.0205
100880.0184
100880.0157
100880.0123
100880.0081
100880.0031
100879.9974
100879.9917
100880.0176
100865.3158
100865.3159
100865.3162
100865.3166
100865.3172
100865.3179
100865.3188
100865.3199
100865.3211
100865.3225
100865.3241
100865.3258
100865.3277
100865.3298
100865.332
100865.3344
100865.337
100865.3398
100865.3427
100865.3458
100865.3489
100865.3522
100865.3555
100865.3589
100865.3622
100865.3654
100865.3685
100865.3714
100865.3739
100865.376
100865.3775
100865.3785
100865.3787
100865.3781
100865.3766
100865.3741
100865.3707
100865.3663
100865.3613
100865.3883
100850.6322
100850.6324
100850.6328
100850.6335
100850.6343
100850.6354
100850.6368
100850.6384
100850.6402
100850.6423
100850.6446
100850.6471
100850.65
100850.6531
100850.6565
100850.6601
100850.664
100850.6682
100850.6727
100850.6774
100850.6823
100850.6874
100850.6928
100850.6982
100850.7037
100850.7092
100850.7146
100850.7199
100850.7248
100850.7294
100850.7334
100850.7367
100850.7392
100850.7408
100850.7413
100850.7407
100850.7388
100850.7357
100850.7316
100850.7588
100835.9484
100835.9487
100835.9493
100835.9501
100835.9513
100835.9528
100835.9545
100835.9566
100835.959
100835.9618
100835.9648
100835.9683
100835.972
100835.9762
100835.9807
100835.9855
100835.9908
100835.9964
100836.0024
100836.0088
100836.0155
100836.0225
100836.0298
100836.0373
100836.045
100836.0528
100836.0607
100836.0684
100836.0759
100836.0829
100836.0895
100836.0953
100836.1002
100836.104
100836.1066
100836.1078
100836.1075
100836.1058
100836.1037
100836.1381
100821.2644
100821.2647
100821.2654
100821.2665
100821.2679
100821.2698
100821.272
100821.2746
100821.2776
100821.281
100821.2848
100821.2891
100821.2938
100821.2989
100821.3046
100821.3106
100821.3172
100821.3243
100821.3318
100821.3398
100821.3483
100821.3572
100821.3665
100821.3762
100821.3862
100821.3963
100821.4066
100821.4169
100821.4269
100821.4367
100821.4458
100821.4542
100821.4616
100821.4677
100821.4724
100821.4755
100821.4769
100821.4766
100821.4759
100821.5164
100806.58
100806.5804
100806.5813
100806.5825
100806.5843
100806.5864
100806.5891
100806.5922
100806.5958
100806.5998
100806.6044
100806.6095
100806.6151
100806.6213
100806.628
100806.6353
100806.6432
100806.6517
100806.6608
100806.6705
100806.6807
100806.6915
100806.7029
100806.7147
100806.727
100806.7396
100806.7524
100806.7652
100806.778
100806.7904
100806.8023
100806.8134
100806.8234
100806.832
100806.8389
100806.844
100806.847
100806.8478
100806.8468
100806.8808
100791.8953
100791.8957
100791.8967
100791.8982
100791.9002
100791.9027
100791.9058
100791.9093
100791.9135
100791.9182
100791.9235
100791.9294
100791.936
100791.9432
100791.951
100791.9595
100791.9687
100791.9786
100791.9892
100792.0006
100792.0126
100792.0254
100792.0388
100792.0528
100792.0674
100792.0825
100792.0979
100792.1134
100792.129
100792.1443
100792.159
100792.173
100792.1857
100792.1969
100792.2062
100792.2134
100792.2181
100792.2202
100792.2196
100792.2531
100777.2101
100777.2105
100777.2117
100777.2133
100777.2156
100777.2185
100777.2219
100777.226
100777.2307
100777.2361
100777.2421
100777.2489
100777.2563
100777.2645
100777.2734
100777.2831
100777.2936
100777.3049
100777.3171
100777.3301
100777.3439
100777.3586
100777.3741
100777.3904
100777.4073
100777.4249
100777.443
100777.4613
100777.4798
100777.4981
100777.5159
100777.5328
100777.5485
100777.5625
100777.5744
100777.5838
100777.5904
100777.5941
100777.596
100777.6411
100762.5243
100762.5249
100762.5261
100762.528
100762.5305
100762.5337
100762.5376
100762.5421
100762.5474
100762.5534
100762.5601
100762.5676
100762.576
100762.5851
100762.5951
100762.606
100762.6178
100762.6305
100762.6442
100762.6589
100762.6745
100762.6911
100762.7087
100762.7272
100762.7466
100762.7668
100762.7876
100762.8089
100762.8304
100762.8518
100762.8728
100762.893
100762.9119
100762.9289
100762.9435
100762.9553
100762.9639
100762.9692
100762.9728
100763.021
100747.838
100747.8386
100747.8399
100747.842
100747.8448
100747.8483
100747.8526
100747.8576
100747.8634
100747.87
100747.8775
100747.8858
100747.8949
100747.905
100747.9161
100747.9281
100747.9412
100747.9553
100747.9705
100747.9868
100748.0043
100748.0228
100748.0425
100748.0633
100748.0852
100748.108
100748.1316
100748.1559
100748.1806
100748.2054
100748.2298
100748.2535
100748.2758
100748.2961
100748.3137
100748.3281
100748.3388
100748.3455
100748.3494
100748.3933
100733.151
100733.1517
100733.1531
100733.1554
100733.1584
100733.1623
100733.1669
100733.1724
100733.1787
100733.1859
100733.194
100733.2031
100733.2131
100733.2242
100733.2362
100733.2494
100733.2637
100733.2792
100733.2959
100733.3139
100733.3331
100733.3536
100733.3754
100733.3985
100733.4228
100733.4483
100733.4749
100733.5023
100733.5303
100733.5587
100733.5868
100733.6142
100733.6403
100733.6642
100733.6852
100733.7024
100733.7153
100733.7233
100733.7276
100733.77
100718.4633
100718.464
100718.4656
100718.4681
100718.4714
100718.4755
100718.4805
100718.4864
100718.4933
100718.501
100718.5098
100718.5196
100718.5304
100718.5424
100718.5555
100718.5698
100718.5853
100718.6021
100718.6203
100718.6399
100718.6608
100718.6833
100718.7072
100718.7326
100718.7594
100718.7877
100718.8172
100718.8479
100718.8795
100718.9115
100718.9436
100718.9752
100719.0054
100719.0333
100719.058
100719.0785
100719.0938
100719.1033
100719.1079
100719.1488
100703.7749
100703.7756
100703.7774
100703.78
100703.7835
100703.7879
100703.7933
100703.7996
100703.8069
100703.8153
100703.8247
100703.8352
100703.8468
100703.8596
100703.8737
100703.8891
100703.9058
100703.924
100703.9436
100703.9647
100703.9874
100704.0117
100704.0378
100704.0655
100704.0948
100704.1259
100704.1585
100704.1926
100704.2278
100704.2638
100704.3002
100704.3362
100704.371
100704.4035
100704.4325
100704.4566
100704.4748
100704.4858
100704.4906
100704.5287
100689.0856
100689.0865
100689.0883
100689.091
100689.0948
100689.0995
100689.1052
100689.1119
100689.1197
100689.1286
100689.1386
100689.1498
100689.1622
100689.1759
100689.1909
100689.2073
100689.2252
100689.2446
100689.2656
100689.2883
100689.3127
100689.3389
100689.367
100689.397
100689.4289
100689.4628
100689.4985
100689.5361
100689.5751
100689.6154
100689.6564
100689.6973
100689.7372
100689.7748
100689.8087
100689.8372
100689.8586
100689.8714
100689.8762
100689.9132
100674.3955
100674.3964
100674.3983
100674.4013
100674.4052
100674.4102
100674.4162
100674.4233
100674.4316
100674.4409
100674.4515
100674.4634
100674.4765
100674.491
100674.5069
100674.5243
100674.5433
100674.5639
100674.5863
100674.6105
100674.6365
100674.6646
100674.6947
100674.727
100674.7614
100674.7981
100674.837
100674.8781
100674.9212
100674.9659
100675.0118
100675.0581
100675.1038
100675.1473
100675.187
100675.2205
100675.246
100675.2609
100675.2654
100675.3029
100659.7045
100659.7054
100659.7075
100659.7105
100659.7147
100659.7199
100659.7263
100659.7337
100659.7424
100659.7523
100659.7634
100659.7758
100659.7896
100659.8049
100659.8217
100659.8401
100659.8601
100659.8819
100659.9056
100659.9312
100659.9588
100659.9887
100660.0208
100660.0552
100660.0922
100660.1317
100660.1738
100660.2185
100660.2657
100660.3152
100660.3663
100660.4185
100660.4706
100660.5209
100660.5674
100660.6072
100660.6376
100660.655
100660.6589
100660.6989
100645.0126
100645.0135
100645.0156
100645.0188
100645.0232
100645.0286
100645.0353
100645.0431
100645.0521
100645.0625
100645.0741
100645.0871
100645.1016
100645.1176
100645.1352
100645.1545
100645.1755
100645.1984
100645.2233
100645.2503
100645.2795
100645.311
100645.345
100645.3816
100645.421
100645.4633
100645.5086
100645.557
100645.6084
100645.6627
100645.7195
100645.7781
100645.8374
100645.8955
100645.9501
100645.9977
100646.0345
100646.0551
100646.058
100646.1038
100630.3196
100630.3206
100630.3228
100630.3261
100630.3306
100630.3363
100630.3432
100630.3514
100630.3608
100630.3715
100630.3836
100630.3972
100630.4123
100630.4289
100630.4473
100630.4674
100630.4894
100630.5134
100630.5394
100630.5677
100630.5984
100630.6315
100630.6673
100630.706
100630.7477
100630.7927
100630.8411
100630.8931
100630.9488
100631.0081
100631.0709
100631.1364
100631.2037
100631.2709
100631.3352
100631.3925
100631.4378
100631.4629
100631.4646
100631.5219
100615.6256
100615.6266
100615.6289
100615.6324
100615.637
100615.6429
100615.6501
100615.6585
100615.6683
100615.6794
100615.6919
100615.706
100615.7216
100615.7389
100615.758
100615.7789
100615.8018
100615.8267
100615.8539
100615.8833
100615.9153
100615.95
100615.9875
100616.0281
100616.072
100616.1196
100616.171
100616.2266
100616.2865
100616.3509
100616.4198
100616.4927
100616.5688
100616.6464
100616.7224
100616.7921
100616.8489
100616.8808
100616.882
100616.9605
100600.9305
100600.9316
100600.9339
100600.9375
100600.9423
100600.9484
100600.9558
100600.9645
100600.9745
100600.986
100600.9989
100601.0134
100601.0296
100601.0475
100601.0672
100601.0888
100601.1125
100601.1383
100601.1665
100601.1971
100601.2303
100601.2663
100601.3054
100601.3478
100601.3938
100601.4437
100601.498
100601.5569
100601.621
100601.6905
100601.7656
100601.8463
100601.932
100602.0213
100602.1113
100602.1966
100602.2694
100602.3119
100602.3158
100602.4321
100586.2343
100586.2354
100586.2378
100586.2415
100586.2464
100586.2527
100586.2603
100586.2692
100586.2796
100586.2913
100586.3046
100586.3195
100586.3361
100586.3545
100586.3748
100586.3971
100586.4215
100586.4481
100586.4772
100586.5088
100586.5432
100586.5805
100586.621
100586.665
100586.7128
100586.7648
100586.8217
100586.8838
100586.9518
100587.0262
100587.1075
100587.1961
100587.292
100587.3943
100587.5006
100587.6058
100587.7008
100587.7603
100587.7762
100587.9589
100571.537
100571.5381
100571.5406
100571.5443
100571.5494
100571.5558
100571.5636
100571.5728
100571.5833
100571.5954
100571.6089
100571.6242
100571.6412
100571.66
100571.6808
100571.7037
100571.7287
100571.7561
100571.786
100571.8185
100571.8539
100571.8923
100571.934
100571.9794
100572.0288
100572.0828
100572.1419
100572.2069
100572.2784
100572.3573
100572.4445
100572.5409
100572.6472
100572.7634
100572.8883
100573.0182
100573.1435
100573.2312
100573.2826
100573.5779
100556.8384
100556.8396
100556.8422
100556.846
100556.8511
100556.8577
100556.8657
100556.875
100556.8858
100556.898
100556.9119
100556.9274
100556.9447
100556.9639
100556.9851
100557.0085
100557.0341
100557.0621
100557.0927
100557.126
100557.1623
100557.2017
100557.2445
100557.291
100557.3417
100557.3972
100557.4582
100557.5256
100557.6002
100557.6831
100557.7756
100557.8792
100557.9956
100558.126
100558.2713
100558.431
100558.5968
100558.7305
100558.8711
100559.3581
100542.1387
100542.14
100542.1426
100542.1464
100542.1516
100542.1583
100542.1665
100542.176
100542.1869
100542.1993
100542.2133
100542.229
100542.2465
100542.266
100542.2876
100542.3114
100542.3375
100542.3661
100542.3972
100542.4312
100542.4682
100542.5084
100542.5521
100542.5996
100542.6511
100542.7078
100542.7703
100542.8396
100542.9166
100543.0027
100543.0996
100543.2094
100543.3347
100543.4781
100543.6431
100543.8349
100544.0517
100544.2593
100544.5972
100545.3977
100527.4371
100527.4389
100527.4415
100527.4453
100527.4504
100527.4571
100527.4652
100527.4748
100527.4856
100527.498
100527.512
100527.5277
100527.5453
100527.5648
100527.5866
100527.6107
100527.637
100527.6659
100527.6973
100527.7317
100527.7692
100527.81
100527.8543
100527.9022
100527.954
100528.0112
100528.0745
100528.1449
100528.2234
100528.3114
100528.411
100528.5252
100528.6569
100528.8097
100528.9887
100529.204
100529.4711
100529.8293
100530.6516
100532.0378
100519.157
100519.1584
100519.1599
100519.1619
100519.1646
100519.168
100519.1722
100519.1771
100519.1827
100519.189
100519.1961
100519.2041
100519.2131
100519.2231
100519.2343
100519.2467
100519.2602
100519.2751
100519.2913
100519.3091
100519.3285
100519.3496
100519.3726
100519.3975
100519.4233
100519.452
100519.4846
100519.5211
100519.562
100519.6083
100519.6614
100519.7232
100519.7965
100519.8842
100519.9901
100520.1162
100520.2589
100520.4714
100520.9836
100521.8835
100518.2062
100518.2064
100518.2066
100518.2067
100518.2067
100518.2068
100518.2069
100518.2069
100518.207
100518.2071
100518.2072
100518.2074
100518.2075
100518.2076
100518.2078
100518.208
100518.2083
100518.2085
100518.2088
100518.2091
100518.2095
100518.21
100518.2105
100518.2111
100518.2118
100518.2127
100518.2137
100518.2149
100518.2164
100518.2185
100518.2211
100518.2249
100518.2303
100518.2383
100518.2499
100518.2638
100518.2725
100518.261
100518.2215
100518.2278
100518.1433
100518.1433
100518.1432
100518.1432
100518.1432
100518.1432
100518.1432
100518.1432
100518.1433
100518.1433
100518.1433