/*--------------------------------*- C++ -*----------------------------------*\
| =========                 |                                                 |
| \\      /  F ield         | OpenFOAM: The Open Source CFD Toolbox           |
|  \\    /   O peration     | Version:  v1912                                 |
|   \\  /    A nd           | Website:  www.openfoam.com                      |
|    \\/     M anipulation  |                                                 |
\*---------------------------------------------------------------------------*/
FoamFile
{
    version     2.0;
    format      ascii;
    class       volScalarField;
    location    "0.2";
    object      p_rgh_0;
}
// * * * * * * * * * * * * * * * * * * * * * * * * * * * * * * * * * * * * * //

dimensions      [1 -1 -2 0 0 0 0];


internalField   nonuniform List<scalar> 
4800
(
101376.5264
101376.525
101376.5219
101376.5173
101376.511
101376.5031
101376.4936
101376.4824
101376.4695
101376.4547
101376.4382
101376.4197
101376.3992
101376.3767
101376.352
101376.3251
101376.2957
101376.2639
101376.2294
101376.1921
101376.1518
101376.1083
101376.0614
101376.0109
101375.9564
101375.8977
101375.8344
101375.7661
101375.6924
101375.6126
101375.5264
101375.4329
101375.3315
101375.2213
101375.1016
101374.9719
101374.832
101374.6818
101374.5504
101374.2743
101369.1716
101369.1702
101369.1671
101369.1625
101369.1563
101369.1484
101369.1389
101369.1277
101369.1148
101369.1001
101369.0836
101369.0651
101369.0447
101369.0222
101368.9976
101368.9707
101368.9415
101368.9097
101368.8753
101368.8381
101368.7979
101368.7546
101368.7078
101368.6574
101368.6031
101368.5446
101368.4815
101368.4134
101368.3399
101368.2605
101368.1746
101368.0814
101367.9803
101367.8703
101367.7506
101367.6203
101367.4785
101367.3248
101367.1712
101366.7375
101361.8182
101361.8168
101361.8138
101361.8092
101361.8029
101361.7951
101361.7857
101361.7745
101361.7617
101361.747
101361.7306
101361.7122
101361.6919
101361.6696
101361.6451
101361.6183
101361.5892
101361.5576
101361.5234
101361.4864
101361.4464
101361.4033
101361.3568
101361.3067
101361.2528
101361.1946
101361.1319
101361.0643
101360.9914
101360.9125
101360.8272
101360.7347
101360.6342
101360.5249
101360.4054
101360.2745
101360.1303
101359.9699
101359.7823
101358.9574
101354.4662
101354.4648
101354.4618
101354.4573
101354.4511
101354.4433
101354.4339
101354.4229
101354.4101
101354.3956
101354.3792
101354.361
101354.3409
101354.3187
101354.2944
101354.2678
101354.2389
101354.2076
101354.1736
101354.1369
101354.0973
101354.0545
101354.0084
101353.9588
101353.9053
101353.8477
101353.7857
101353.7188
101353.6466
101353.5686
101353.4843
101353.3928
101353.2935
101353.1851
101353.0664
101352.9355
101352.7893
101352.6228
101352.4
101351.0581
101347.1156
101347.1143
101347.1113
101347.1068
101347.1007
101347.093
101347.0837
101347.0727
101347.0601
101347.0457
101347.0295
101347.0115
101346.9915
101346.9695
101346.9454
101346.9192
101346.8906
101346.8595
101346.826
101346.7896
101346.7504
101346.7082
101346.6626
101346.6136
101346.5608
101346.5039
101346.4427
101346.3768
101346.3056
101346.2288
101346.1458
101346.0558
101345.958
101345.8512
101345.734
101345.6042
101345.4579
101345.2891
101345.0429
101343.1258
101339.7665
101339.7651
101339.7622
101339.7577
101339.7517
101339.7441
101339.7349
101339.724
101339.7115
101339.6973
101339.6814
101339.6635
101339.6438
101339.6221
101339.5983
101339.5724
101339.5442
101339.5135
101339.4804
101339.4446
101339.4059
101339.3642
101339.3194
101339.2711
101339.2191
101339.1632
101339.103
101339.0382
101338.9683
101338.893
101338.8116
101338.7235
101338.6277
101338.5233
101338.4085
101338.281
101338.1372
101337.9708
101337.7147
101335.2361
101332.4187
101332.4173
101332.4144
101332.41
101332.4041
101332.3966
101332.3875
101332.3768
101332.3645
101332.3505
101332.3348
101332.3172
101332.2978
101332.2764
101332.253
101332.2274
101332.1997
101332.1695
101332.1369
101332.1017
101332.0636
101332.0227
101331.9786
101331.9312
101331.8802
101331.8253
101331.7664
101331.7029
101331.6346
101331.5611
101331.4817
101331.3958
101331.3026
101331.2011
101331.0897
101330.9662
101330.8273
101330.6676
101330.4054
101327.3958
101325.0722
101325.0709
101325.0681
101325.0637
101325.0579
101325.0505
101325.0416
101325.0311
101325.019
101325.0052
101324.9898
101324.9725
101324.9534
101324.9324
101324.9094
101324.8843
101324.857
101324.8274
101324.7954
101324.7609
101324.7236
101324.6835
101324.6403
101324.5938
101324.544
101324.4904
101324.4328
101324.3709
101324.3044
101324.2329
101324.1558
101324.0726
101323.9825
101323.8845
101323.7774
101323.6593
101323.5275
101323.3779
101323.1119
101319.5775
101317.7271
101317.7258
101317.723
101317.7188
101317.713
101317.7058
101317.6971
101317.6868
101317.6749
101317.6614
101317.6462
101317.6293
101317.6106
101317.59
101317.5675
101317.5429
101317.5162
101317.4873
101317.4559
101317.4221
101317.3857
101317.3465
101317.3043
101317.259
101317.2104
101317.1582
101317.1022
101317.0421
101316.9776
101316.9083
101316.8338
101316.7536
101316.667
101316.5732
101316.4713
101316.3596
101316.2365
101316.0992
101315.8289
101311.7576
101310.3833
101310.382
101310.3793
101310.3751
101310.3695
101310.3625
101310.3539
101310.3439
101310.3323
101310.3191
101310.3042
101310.2877
101310.2694
101310.2493
101310.2273
101310.2033
101310.1772
101310.1489
101310.1184
101310.0854
101310.0499
101310.0117
101309.9707
101309.9266
101309.8793
101309.8287
101309.7744
101309.7162
101309.6539
101309.5871
101309.5154
101309.4385
101309.3558
101309.2667
101309.1705
101309.0661
101308.9526
101308.8289
101308.5524
101303.9519
101303.0407
101303.0395
101303.0369
101303.0328
101303.0273
101303.0204
101303.0121
101303.0023
101302.991
101302.9781
101302.9637
101302.9476
101302.9297
101302.9101
101302.8887
101302.8653
101302.8399
101302.8124
101302.7827
101302.7507
101302.7161
101302.679
101302.6392
101302.5965
101302.5507
101302.5017
101302.4493
101302.3932
101302.3332
101302.2691
101302.2005
101302.1271
101302.0486
101301.9645
101301.8744
101301.7777
101301.6743
101301.5641
101301.2776
101296.1963
101295.6995
101295.6983
101295.6957
101295.6917
101295.6864
101295.6797
101295.6716
101295.6621
101295.6511
101295.6386
101295.6245
101295.6089
101295.5916
101295.5725
101295.5517
101295.529
101295.5044
101295.4777
101295.4489
101295.4178
101295.3844
101295.3484
101295.3099
101295.2687
101295.2245
101295.1772
101295.1268
101295.0729
101295.0154
101294.9541
101294.8887
101294.8191
101294.7449
101294.666
101294.5822
101294.4934
101294.3998
101294.3025
101294.0017
101288.4697
101288.3594
101288.3582
101288.3557
101288.3519
101288.3467
101288.3402
101288.3324
101288.3231
101288.3125
101288.3004
101288.2868
101288.2716
101288.2548
101288.2364
101288.2162
101288.1943
101288.1704
101288.1446
101288.1168
101288.0867
101288.0545
101288.0198
101287.9827
101287.9429
101287.9004
101287.8551
101287.8067
101287.7551
101287.7002
101287.6418
101287.5798
101287.514
101287.4443
101287.3707
101287.2932
101287.212
101287.1279
101287.0421
101286.7212
101280.722
101281.0205
101281.0194
101281.017
101281.0132
101281.0083
101281.002
101280.9944
101280.9855
101280.9752
101280.9635
101280.9503
101280.9357
101280.9195
101280.9017
101280.8823
101280.8611
101280.8381
101280.8132
101280.7864
101280.7574
101280.7264
101280.6931
101280.6574
101280.6193
101280.5785
101280.5351
101280.4889
101280.4397
101280.3875
101280.3321
101280.2735
101280.2116
101280.1464
101280.078
101280.0067
101279.9328
101279.8574
101279.7819
101279.4354
101272.9893
101273.6827
101273.6817
101273.6793
101273.6758
101273.671
101273.6649
101273.6576
101273.649
101273.6391
101273.6278
101273.6152
101273.6011
101273.5855
101273.5684
101273.5497
101273.5293
101273.5072
101273.4833
101273.4576
101273.4298
101273.4
101273.3681
101273.334
101273.2975
101273.2586
101273.2172
101273.1732
101273.1264
101273.077
101273.0247
101272.9695
101272.9115
101272.8508
101272.7875
101272.7221
101272.6551
101272.5876
101272.5211
101272.1454
101265.2313
101266.3461
101266.345
101266.3428
101266.3394
101266.3348
101266.329
101266.322
101266.3137
101266.3042
101266.2934
101266.2813
101266.2678
101266.2528
101266.2365
101266.2185
101266.199
101266.1779
101266.155
101266.1303
101266.1038
101266.0754
101266.0449
101266.0123
101265.9776
101265.9406
101265.9012
101265.8595
101265.8152
101265.7685
101265.7193
101265.6676
101265.6135
101265.5571
101265.4988
101265.439
101265.3783
101265.318
101265.2593
101264.8546
101257.4779
101259.0104
101259.0095
101259.0073
101259.004
101258.9996
101258.9941
101258.9874
101258.9795
101258.9705
101258.9601
101258.9486
101258.9357
101258.9214
101258.9058
101258.8887
101258.8701
101258.8499
101258.8281
101258.8046
101258.7793
101258.7523
101258.7233
101258.6923
101258.6593
101258.6243
101258.587
101258.5476
101258.5059
101258.462
101258.4158
101258.3675
101258.3172
101258.2651
101258.2115
101258.1569
101258.1021
101258.0481
101257.9963
101257.5623
101249.7084
101251.6758
101251.6749
101251.6729
101251.6697
101251.6656
101251.6603
101251.6539
101251.6464
101251.6378
101251.628
101251.617
101251.6047
101251.5912
101251.5763
101251.56
101251.5424
101251.5232
101251.5025
101251.4802
101251.4563
101251.4306
101251.4032
101251.3739
101251.3427
101251.3096
101251.2745
101251.2374
101251.1983
101251.1571
101251.114
101251.0691
101251.0224
101250.9744
101250.9252
101250.8755
101250.8261
101250.7778
101250.7319
101250.2681
101241.9436
101244.3422
101244.3413
101244.3394
101244.3364
101244.3324
101244.3275
101244.3214
101244.3143
101244.3062
101244.2969
101244.2865
101244.2749
101244.262
101244.248
101244.2326
101244.2159
101244.1978
101244.1783
101244.1572
101244.1346
101244.1104
101244.0845
101244.057
101244.0276
101243.9965
101243.9636
101243.9288
101243.8922
101243.8538
101243.8137
101243.772
101243.7289
101243.6847
101243.6398
101243.5947
101243.5501
101243.5068
101243.466
101242.972
101234.1662
101237.0094
101237.0086
101237.0068
101237.004
101237.0003
101236.9956
101236.9899
101236.9832
101236.9755
101236.9668
101236.957
101236.946
101236.934
101236.9208
101236.9063
101236.8906
101236.8736
101236.8552
101236.8354
101236.8142
101236.7915
101236.7672
101236.7414
101236.7139
101236.6848
101236.654
101236.6216
101236.5875
101236.5518
101236.5147
101236.4762
101236.4365
101236.396
101236.3551
101236.3141
101236.2739
101236.2352
101236.1987
101235.6742
101226.3896
101229.6775
101229.6767
101229.675
101229.6724
101229.6689
101229.6645
101229.6592
101229.653
101229.6458
101229.6376
101229.6284
101229.6182
101229.6069
101229.5945
101229.581
101229.5663
101229.5504
101229.5333
101229.5148
101229.495
101229.4738
101229.4511
101229.4271
101229.4015
101229.3744
101229.3458
101229.3157
101229.2841
101229.2511
101229.2169
101229.1814
101229.1451
101229.1081
101229.0708
101229.0337
101228.9975
101228.9627
101228.9301
101228.3748
101218.6105
101222.3464
101222.3457
101222.3441
101222.3417
101222.3384
101222.3343
101222.3294
101222.3236
101222.3169
101222.3093
101222.3008
101222.2913
101222.2808
101222.2693
101222.2567
101222.2431
101222.2283
101222.2124
101222.1953
101222.1769
101222.1572
101222.1362
101222.1139
101222.0902
101222.0652
101222.0387
101222.011
101221.9819
101221.9515
101221.9201
101221.8876
101221.8544
101221.8207
101221.7869
101221.7534
101221.7207
101221.6896
101221.6603
101221.0741
101210.8225
101215.016
101215.0154
101215.0139
101215.0117
101215.0087
101215.0049
101215.0004
101214.995
101214.9888
101214.9818
101214.974
101214.9652
101214.9555
101214.9449
101214.9334
101214.9208
101214.9072
101214.8925
101214.8767
101214.8598
101214.8417
101214.8224
101214.8018
101214.7801
101214.7571
101214.7328
101214.7073
101214.6807
101214.6529
101214.6242
101214.5946
101214.5644
101214.5339
101214.5033
101214.473
101214.4437
101214.4157
101214.3895
101213.7723
101203.0337
101207.6864
101207.6857
101207.6844
101207.6824
101207.6796
101207.6762
101207.672
101207.6671
101207.6615
101207.6551
101207.6479
101207.6399
101207.6311
101207.6214
101207.6108
101207.5993
101207.5869
101207.5735
101207.5591
101207.5436
101207.5271
101207.5095
101207.4908
101207.4709
101207.4499
101207.4278
101207.4046
101207.3804
101207.3552
101207.3291
101207.3023
101207.275
101207.2474
101207.2199
101207.1927
101207.1663
101207.1413
101207.1177
101206.4696
101195.2446
101200.3573
101200.3567
101200.3555
101200.3537
101200.3512
101200.3481
101200.3444
101200.3399
101200.3348
101200.3291
101200.3226
101200.3153
101200.3074
101200.2986
101200.2891
101200.2787
101200.2675
101200.2553
101200.2423
101200.2283
101200.2134
101200.1975
101200.1806
101200.1627
101200.1437
101200.1238
101200.1028
101200.081
101200.0582
101200.0348
101200.0107
101199.9861
101199.9613
101199.9366
101199.9123
101199.8887
101199.8663
101199.845
101199.1661
101187.4551
101193.0288
101193.0283
101193.0272
101193.0256
101193.0234
101193.0206
101193.0173
101193.0133
101193.0088
101193.0036
101192.9978
101192.9914
101192.9843
101192.9765
101192.968
101192.9587
101192.9487
101192.9379
101192.9263
101192.9138
101192.9005
101192.8863
101192.8712
101192.8552
101192.8383
101192.8205
101192.8018
101192.7823
101192.762
101192.741
101192.7195
101192.6976
101192.6755
101192.6535
101192.6318
101192.6108
101192.5907
101192.5717
101191.8619
101179.6652
101185.7008
101185.7004
101185.6994
101185.698
101185.6961
101185.6936
101185.6907
101185.6873
101185.6833
101185.6788
101185.6737
101185.668
101185.6618
101185.655
101185.6475
101185.6394
101185.6306
101185.6211
101185.6109
101185.6
101185.5883
101185.5758
101185.5626
101185.5485
101185.5336
101185.5179
101185.5015
101185.4843
101185.4664
101185.4479
101185.4289
101185.4095
101185.39
101185.3705
101185.3513
101185.3326
101185.3148
101185.2977
101184.557
101171.875
101178.3733
101178.3729
101178.3721
101178.3709
101178.3692
101178.3671
101178.3646
101178.3616
101178.3582
101178.3544
101178.35
101178.3452
101178.3398
101178.334
101178.3276
101178.3206
101178.3131
101178.3049
101178.2962
101178.2868
101178.2767
101178.266
101178.2545
101178.2424
101178.2295
101178.216
101178.2017
101178.1868
101178.1713
101178.1552
101178.1387
101178.1218
101178.1047
101178.0876
101178.0708
101178.0543
101178.0385
101178.0232
101177.2515
101164.0844
101171.0461
101171.0458
101171.0451
101171.0441
101171.0427
101171.041
101171.0389
101171.0364
101171.0336
101171.0304
101171.0268
101171.0228
101171.0183
101171.0134
101171.0081
101171.0023
101170.996
101170.9892
101170.9819
101170.9741
101170.9657
101170.9567
101170.9471
101170.9369
101170.926
101170.9146
101170.9025
101170.8899
101170.8767
101170.863
101170.8488
101170.8344
101170.8197
101170.8049
101170.7902
101170.7759
101170.762
101170.7483
101169.9456
101156.2935
101163.7192
101163.719
101163.7185
101163.7177
101163.7166
101163.7152
101163.7135
101163.7116
101163.7093
101163.7068
101163.7039
101163.7007
101163.6972
101163.6933
101163.689
101163.6844
101163.6794
101163.674
101163.6681
101163.6618
101163.6551
101163.6478
101163.6401
101163.6318
101163.623
101163.6137
101163.6038
101163.5934
101163.5825
101163.5712
101163.5594
101163.5472
101163.5348
101163.5223
101163.5097
101163.4974
101163.4853
101163.4731
101162.6392
101148.5023
101156.3926
101156.3925
101156.3921
101156.3915
101156.3907
101156.3896
101156.3884
101156.387
101156.3853
101156.3834
101156.3813
101156.3789
101156.3763
101156.3734
101156.3703
101156.3668
101156.3631
101156.359
101156.3547
101156.3499
101156.3448
101156.3394
101156.3335
101156.3271
101156.3204
101156.3132
101156.3055
101156.2974
101156.2887
101156.2797
101156.2702
101156.2604
101156.2502
101156.2398
101156.2293
101156.2189
101156.2085
101156.1977
101155.3325
101140.7109
101149.0662
101149.0661
101149.0658
101149.0655
101149.0649
101149.0643
101149.0635
101149.0625
101149.0615
101149.0602
101149.0589
101149.0573
101149.0556
101149.0538
101149.0517
101149.0495
101149.047
101149.0444
101149.0415
101149.0383
101149.0349
101149.0312
101149.0272
101149.0228
101149.0181
101149.013
101149.0075
101149.0016
101148.9953
101148.9885
101148.9814
101148.9738
101148.9658
101148.9576
101148.9491
101148.9404
101148.9317
101148.9223
101148.0255
101132.9193
101141.7399
101141.7399
101141.7397
101141.7396
101141.7393
101141.739
101141.7387
101141.7383
101141.7378
101141.7372
101141.7366
101141.7359
101141.7351
101141.7343
101141.7333
101141.7323
101141.7311
101141.7298
101141.7284
101141.7269
101141.7251
101141.7232
101141.7211
101141.7187
101141.7161
101141.7131
101141.7098
101141.7062
101141.7021
101141.6977
101141.6928
101141.6875
101141.6817
101141.6755
101141.669
101141.6621
101141.655
101141.6469
101140.7182
101125.1275
101134.4137
101134.4137
101134.4137
101134.4137
101134.4138
101134.4138
101134.4139
101134.414
101134.4141
101134.4142
101134.4144
101134.4145
101134.4147
101134.4148
101134.415
101134.4152
101134.4153
101134.4154
101134.4155
101134.4155
101134.4155
101134.4154
101134.4152
101134.4148
101134.4142
101134.4134
101134.4123
101134.4109
101134.4092
101134.4071
101134.4045
101134.4014
101134.3978
101134.3937
101134.3891
101134.384
101134.3784
101134.3717
101133.4106
101117.3354
101127.0874
101127.0875
101127.0876
101127.0879
101127.0882
101127.0886
101127.0892
101127.0898
101127.0905
101127.0913
101127.0922
101127.0931
101127.0942
101127.0954
101127.0967
101127.098
101127.0995
101127.101
101127.1026
101127.1042
101127.1059
101127.1076
101127.1093
101127.1109
101127.1124
101127.1138
101127.115
101127.1159
101127.1165
101127.1167
101127.1164
101127.1156
101127.1142
101127.1122
101127.1095
101127.1062
101127.1022
101127.0967
101126.1025
101109.5757
101119.7611
101119.7612
101119.7615
101119.762
101119.7626
101119.7634
101119.7643
101119.7654
101119.7667
101119.7682
101119.7698
101119.7717
101119.7737
101119.7759
101119.7782
101119.7808
101119.7836
101119.7865
101119.7896
101119.7929
101119.7963
101119.7998
101119.8034
101119.807
101119.8107
101119.8142
101119.8177
101119.8209
101119.8239
101119.8265
101119.8286
101119.8301
101119.8309
101119.831
101119.8303
101119.8287
101119.8262
101119.8222
101118.7943
101101.8376
101112.4346
101112.4348
101112.4352
101112.4359
101112.4368
101112.4379
101112.4393
101112.4409
101112.4428
101112.445
101112.4474
101112.45
101112.453
101112.4562
101112.4597
101112.4634
101112.4675
101112.4719
101112.4765
101112.4814
101112.4865
101112.4918
101112.4974
101112.5031
101112.5089
101112.5147
101112.5205
101112.5261
101112.5315
101112.5365
101112.541
101112.5448
101112.5479
101112.5502
101112.5514
101112.5516
101112.5507
101112.5479
101111.4853
101094.076
101105.1079
101105.1081
101105.1087
101105.1096
101105.1108
101105.1123
101105.1141
101105.1162
101105.1187
101105.1215
101105.1246
101105.1281
101105.132
101105.1362
101105.1408
101105.1458
101105.1512
101105.1569
101105.1631
101105.1696
101105.1765
101105.1837
101105.1912
101105.199
101105.2069
101105.215
101105.2232
101105.2312
101105.2391
101105.2466
101105.2536
101105.2599
101105.2653
101105.2697
101105.273
101105.275
101105.2756
101105.2738
101104.1734
101086.321
101097.7809
101097.7812
101097.7819
101097.783
101097.7845
101097.7863
101097.7886
101097.7912
101097.7943
101097.7977
101097.8016
101097.8059
101097.8107
101097.8159
101097.8216
101097.8278
101097.8345
101097.8417
101097.8493
101097.8575
101097.8661
101097.8752
101097.8847
101097.8946
101097.9048
101097.9152
101097.9257
101097.9363
101097.9467
101097.9568
101097.9664
101097.9752
101097.9831
101097.9898
101097.9951
101097.999
101098.0011
101098.0004
101096.8611
101078.5028
101090.4536
101090.454
101090.4548
101090.4561
101090.4578
101090.46
101090.4627
101090.4658
101090.4695
101090.4736
101090.4782
101090.4833
101090.489
101090.4952
101090.502
101090.5094
101090.5174
101090.526
101090.5352
101090.545
101090.5554
101090.5663
101090.5778
101090.5898
101090.6023
101090.6151
101090.6281
101090.6412
101090.6543
101090.6671
101090.6793
101090.6908
101090.7013
101090.7104
101090.7179
101090.7236
101090.7274
101090.7281
101089.5495
101070.8855
101083.1259
101083.1263
101083.1273
101083.1288
101083.1308
101083.1333
101083.1364
101083.14
101083.1442
101083.149
101083.1543
101083.1603
101083.1668
101083.1741
101083.182
101083.1905
101083.1998
101083.2098
101083.2205
101083.2319
101083.2441
101083.2569
101083.2705
101083.2846
101083.2994
101083.3146
101083.3302
101083.346
101083.3618
101083.3774
101083.3924
101083.4067
101083.4199
101083.4316
101083.4414
101083.4491
101083.4546
101083.4565
101082.2365
101063.1975
101075.7977
101075.7982
101075.7993
101075.801
101075.8033
101075.8061
101075.8096
101075.8137
101075.8185
101075.8238
101075.8299
101075.8366
101075.8441
101075.8523
101075.8613
101075.871
101075.8816
101075.893
101075.9052
101075.9183
101075.9322
101075.9469
101075.9625
101075.9789
101075.996
101076.0137
101076.0319
101076.0504
101076.0691
101076.0876
101076.1057
101076.123
101076.139
101076.1534
101076.1657
101076.1756
101076.1827
101076.1855
101074.9204
101055.4662
101068.469
101068.4695
101068.4708
101068.4727
101068.4752
101068.4784
101068.4823
101068.4868
101068.4921
101068.4981
101068.5049
101068.5124
101068.5207
101068.5299
101068.5399
101068.5508
101068.5627
101068.5754
101068.5892
101068.6039
101068.6195
101068.6362
101068.6539
101068.6724
101068.6919
101068.7122
101068.7331
101068.7545
101068.7761
101068.7978
101068.819
101068.8395
101068.8586
101068.876
101068.891
101068.9032
101068.9121
101068.9158
101067.6063
101047.7333
101061.1397
101061.1403
101061.1417
101061.1437
101061.1465
101061.15
101061.1543
101061.1593
101061.1651
101061.1718
101061.1792
101061.1875
101061.1967
101061.2068
101061.2178
101061.2299
101061.243
101061.2571
101061.2723
101061.2886
101061.3061
101061.3247
101061.3444
101061.3652
101061.3871
101061.4099
101061.4336
101061.458
101061.4828
101061.5077
101061.5324
101061.5562
101061.5788
101061.5994
101061.6173
101061.6321
101061.643
101061.6481
101060.2948
101040.1098
101053.8097
101053.8104
101053.8119
101053.8142
101053.8172
101053.821
101053.8257
101053.8311
101053.8375
101053.8446
101053.8528
101053.8618
101053.8718
101053.8828
101053.8949
101053.9081
101053.9224
101053.9379
101053.9546
101053.9725
101053.9917
101054.0122
101054.034
101054.057
101054.0814
101054.1069
101054.1335
101054.1609
101054.189
101054.2174
101054.2457
101054.2733
101054.2995
101054.3237
101054.3449
101054.3625
101054.3757
101054.3821
101052.9863
101032.4439
101046.4791
101046.4798
101046.4814
101046.4839
101046.4871
101046.4913
101046.4963
101046.5022
101046.509
101046.5168
101046.5255
101046.5353
101046.5461
101046.558
101046.5711
101046.5854
101046.6009
101046.6176
101046.6358
101046.6553
101046.6762
101046.6986
101046.7225
101046.7478
101046.7746
101046.8028
101046.8324
101046.863
101046.8946
101046.9267
101046.9588
101046.9905
101047.0208
101047.049
101047.0739
101047.0947
101047.1103
101047.1182
101045.6799
101024.741
101039.1477
101039.1485
101039.1502
101039.1528
101039.1563
101039.1607
101039.1661
101039.1724
101039.1797
101039.188
101039.1974
101039.2078
101039.2194
101039.2322
101039.2463
101039.2616
101039.2783
101039.2963
101039.3159
101039.3369
101039.3596
101039.3838
101039.4098
101039.4374
101039.4667
101039.4977
101039.5302
101039.5642
101039.5993
101039.6353
101039.6717
101039.7078
101039.7426
101039.7753
101039.8045
101039.8289
101039.8474
101039.8568
101038.379
101016.8857
101031.8155
101031.8163
101031.8182
101031.8209
101031.8246
101031.8293
101031.835
101031.8417
101031.8495
101031.8583
101031.8683
101031.8794
101031.8918
101031.9054
101031.9204
101031.9367
101031.9545
101031.9739
101031.9948
101032.0174
101032.0417
101032.0678
101032.0957
101032.1256
101032.1574
101032.1911
101032.2267
101032.2641
101032.3031
101032.3432
101032.3841
101032.425
101032.465
101032.5027
101032.5368
101032.5656
101032.5874
101032.5984
101031.0813
101009.0083
101024.4825
101024.4833
101024.4853
101024.4882
101024.4921
101024.4971
101024.5031
101024.5102
101024.5183
101024.5277
101024.5382
101024.55
101024.5631
101024.5775
101024.5933
101024.6107
101024.6296
101024.6501
101024.6723
101024.6964
101024.7223
101024.7502
101024.7802
101024.8123
101024.8466
101024.8831
101024.9218
101024.9627
101025.0056
101025.0501
101025.0959
101025.142
101025.1877
101025.2313
101025.2711
101025.305
101025.3308
101025.3439
101023.785
101001.1114
101017.1485
101017.1494
101017.1514
101017.1545
101017.1586
101017.1638
101017.1701
101017.1776
101017.1862
101017.196
101017.2071
101017.2194
101017.2332
101017.2484
101017.2651
101017.2833
101017.3033
101017.325
101017.3485
101017.3739
101017.4014
101017.4311
101017.463
101017.4973
101017.534
101017.5733
101017.6151
101017.6596
101017.7065
101017.7557
101017.8066
101017.8586
101017.9106
101017.9609
101018.0075
101018.0476
101018.0785
101018.094
101016.4858
100993.1933
101009.8136
101009.8146
101009.8167
101009.8199
101009.8242
101009.8296
101009.8362
101009.844
101009.853
101009.8632
101009.8748
101009.8877
101009.9021
101009.918
101009.9355
101009.9547
101009.9756
101009.9984
101010.0231
101010.0499
101010.0789
101010.1102
101010.144
101010.1804
101010.2195
101010.2615
101010.3065
101010.3545
101010.4056
101010.4595
101010.516
101010.5743
101010.6334
101010.6914
101010.7461
101010.794
101010.8313
101010.8499
101009.1771
100985.2574
101002.4777
101002.4787
101002.4809
101002.4842
101002.4887
101002.4944
101002.5012
101002.5093
101002.5186
101002.5293
101002.5413
101002.5548
101002.5698
101002.5864
101002.6046
101002.6246
101002.6464
101002.6702
101002.6961
101002.7242
101002.7546
101002.7875
101002.8231
101002.8615
101002.9029
101002.9475
101002.9955
101003.0471
101003.1024
101003.1613
101003.2236
101003.2887
101003.3557
101003.4227
101003.4869
101003.5445
101003.5904
101003.6132
101001.8481
100977.2973
100995.1408
100995.1418
100995.1441
100995.1475
100995.1522
100995.158
100995.1651
100995.1735
100995.1832
100995.1942
100995.2067
100995.2206
100995.2361
100995.2533
100995.2722
100995.293
100995.3157
100995.3405
100995.3674
100995.3967
100995.4285
100995.4629
100995.5001
100995.5404
100995.5839
100995.6311
100995.682
100995.7371
100995.7965
100995.8604
100995.9288
100996.0012
100996.0768
100996.154
100996.2298
100996.2997
100996.3571
100996.3861
100994.4813
100969.2984
100987.8028
100987.8039
100987.8062
100987.8097
100987.8145
100987.8206
100987.8279
100987.8365
100987.8465
100987.8579
100987.8707
100987.8851
100987.9011
100987.9189
100987.9384
100987.9599
100987.9834
100988.009
100988.037
100988.0673
100988.1003
100988.1361
100988.1748
100988.2169
100988.2624
100988.3119
100988.3656
100988.4241
100988.4875
100988.5564
100988.6308
100988.7109
100988.7959
100988.8846
100988.9742
100989.0596
100989.1329
100989.1711
100987.0465
100961.23
100980.4637
100980.4648
100980.4672
100980.4708
100980.4758
100980.482
100980.4895
100980.4984
100980.5086
100980.5203
100980.5334
100980.5482
100980.5647
100980.5829
100980.603
100980.6251
100980.6494
100980.6758
100980.7046
100980.736
100980.7701
100980.8071
100980.8473
100980.8909
100980.9382
100980.9898
100981.0461
100981.1076
100981.1748
100981.2485
100981.329
100981.4168
100981.5118
100981.6133
100981.7189
100981.8238
100981.9192
100981.9711
100979.4913
100953.018
100973.1235
100973.1246
100973.1271
100973.1308
100973.1358
100973.1422
100973.1499
100973.159
100973.1694
100973.1813
100973.1948
100973.2099
100973.2268
100973.2454
100973.2661
100973.2887
100973.3136
100973.3407
100973.3704
100973.4026
100973.4377
100973.4758
100973.5172
100973.5622
100973.6111
100973.6645
100973.723
100973.7872
100973.858
100973.936
100974.0223
100974.1177
100974.2229
100974.338
100974.4619
100974.5911
100974.7163
100974.7878
100971.7241
100944.5493
100965.7821
100965.7833
100965.7858
100965.7895
100965.7946
100965.8012
100965.8091
100965.8183
100965.829
100965.8411
100965.8548
100965.8702
100965.8873
100965.9064
100965.9274
100965.9506
100965.976
100966.0038
100966.0341
100966.0671
100966.1031
100966.1421
100966.1845
100966.2307
100966.2809
100966.3358
100966.3961
100966.4627
100966.5364
100966.6183
100966.7097
100966.8121
100966.9272
100967.0562
100967.2001
100967.3584
100967.5234
100967.6175
100963.5774
100935.2488
100958.4395
100958.4408
100958.4434
100958.4471
100958.4523
100958.4589
100958.467
100958.4764
100958.4872
100958.4994
100958.5133
100958.5289
100958.5463
100958.5656
100958.587
100958.6106
100958.6364
100958.6647
100958.6956
100958.7293
100958.766
100958.8058
100958.8491
100958.8962
100958.9473
100959.0032
100959.0649
100959.1334
100959.2095
100959.2945
100959.3901
100959.4987
100959.6224
100959.7642
100959.9272
100960.1166
100960.3315
100960.4258
100954.8252
100925.2296
100951.095
100951.0968
100951.0993
100951.1031
100951.1082
100951.1149
100951.123
100951.1324
100951.1431
100951.1553
100951.1691
100951.1847
100951.2021
100951.2215
100951.2431
100951.2669
100951.293
100951.3216
100951.3528
100951.3869
100951.424
100951.4643
100951.5083
100951.5559
100951.6074
100951.6636
100951.7261
100951.7956
100951.8731
100951.9599
100952.0582
100952.1709
100952.301
100952.4519
100952.6287
100952.8408
100953.0898
100951.3898
100938.8326
100900.01
100566.937
100567.012
100567.0792
100567.1711
100567.3201
100567.5238
100567.7722
100568.0585
100568.3827
100568.7499
100569.1662
100569.6354
100570.159
100570.7409
100571.3913
100572.1133
100572.8938
100573.7541
100574.6872
100575.7086
100576.8247
100578.0263
100579.3397
100580.7618
100582.3083
100583.9991
100585.8478
100587.9015
100590.1782
100592.7091
100595.546
100598.7805
100602.4593
100606.6065
100611.2753
100616.7407
100623.6956
100638.204
100686.3805
100738.8042
100513.4225
100513.4493
100513.4602
100513.4653
100513.4693
100513.4733
100513.4776
100513.482
100513.4867
100513.4919
100513.4976
100513.5041
100513.5114
100513.5196
100513.5292
100513.541
100513.5527
100513.5667
100513.5825
100513.6007
100513.6228
100513.6459
100513.6734
100513.7052
100513.7423
100513.788
100513.84
100513.9048
100513.9865
100514.0934
100514.2344
100514.4387
100514.7538
100515.262
100516.0553
100517.0503
100517.7141
100517.2867
100513.9366
100515.7081
100513.2534
100513.2534
100513.2533
100513.2533
100513.2533
100513.2534
100513.2534
100513.2534