/*--------------------------------*- C++ -*----------------------------------*\
| =========                 |                                                 |
| \\      /  F ield         | OpenFOAM: The Open Source CFD Toolbox           |
|  \\    /   O peration     | Version:  v1912                                 |
|   \\  /    A nd           | Website:  www.openfoam.com                      |
|    \\/     M anipulation  |                                                 |
\*---------------------------------------------------------------------------*/
FoamFile
{
    version     2.0;
    format      ascii;
    class       volScalarField;
    location    "0.2";
    object      p_rgh;
}
// * * * * * * * * * * * * * * * * * * * * * * * * * * * * * * * * * * * * * //

dimensions      [1 -1 -2 0 0 0 0];


internalField   nonuniform List<scalar> 
4800
(
101383.2664
101383.265
101383.2619
101383.2572
101383.2509
101383.2429
101383.2332
101383.2218
101383.2087
101383.1938
101383.177
101383.1582
101383.1375
101383.1146
101383.0896
101383.0623
101383.0326
101383.0003
101382.9654
101382.9276
101382.8868
101382.8428
101382.7954
101382.7442
101382.6892
101382.6299
101382.566
101382.4971
101382.4227
101382.3424
101382.2556
101382.1617
101382.0599
101381.9495
101381.8299
101381.7007
101381.562
101381.4139
101381.2865
101381.0151
101375.9117
101375.9103
101375.9072
101375.9025
101375.8961
101375.8882
101375.8785
101375.8672
101375.8541
101375.8392
101375.8224
101375.8037
101375.783
101375.7602
101375.7352
101375.708
101375.6783
101375.6462
101375.6113
101375.5736
101375.533
101375.4891
101375.4418
101375.3908
101375.3359
101375.2768
101375.2131
101375.1444
101375.0703
101374.9903
101374.9037
101374.8101
101374.7086
101374.5984
101374.4787
101374.3488
101374.208
101374.0563
101373.9063
101373.4781
101368.5583
101368.5569
101368.5539
101368.5492
101368.5429
101368.5349
101368.5253
101368.514
101368.501
101368.4862
101368.4695
101368.4509
101368.4303
101368.4076
101368.3827
101368.3556
101368.3261
101368.2941
101368.2594
101368.222
101368.1815
101368.1378
101368.0908
101368.0402
101367.9856
101367.9268
101367.8635
101367.7953
101367.7217
101367.6422
101367.5563
101367.4633
101367.3624
101367.2527
101367.1331
101367.0024
101366.8588
101366.6999
101366.5153
101365.6977
101361.2064
101361.205
101361.202
101361.1973
101361.1911
101361.1832
101361.1737
101361.1624
101361.1495
101361.1348
101361.1182
101361.0997
101361.0793
101361.0568
101361.0321
101361.0052
101360.9759
101360.9441
101360.9097
101360.8725
101360.8324
101360.7891
101360.7425
101360.6923
101360.6382
101360.58
101360.5173
101360.4498
101360.3769
101360.2983
101360.2133
101360.1213
101360.0214
101359.9126
101359.7936
101359.6625
101359.5165
101359.3507
101359.1294
101357.7953
101353.8559
101353.8546
101353.8515
101353.8469
101353.8407
101353.8329
101353.8235
101353.8124
101353.7995
101353.785
101353.7685
101353.7502
101353.73
101353.7077
101353.6833
101353.6566
101353.6276
101353.5962
101353.5622
101353.5254
101353.4857
101353.4429
101353.3968
101353.3472
101353.2937
101353.2363
101353.1744
101353.1078
101353.036
101352.9585
101352.8747
101352.7841
101352.6856
101352.5782
101352.4605
101352.3301
101352.1836
101352.0145
101351.7677
101349.8532
101346.5069
101346.5055
101346.5025
101346.498
101346.4919
101346.4841
101346.4748
101346.4638
101346.4511
101346.4367
101346.4205
101346.4024
101346.3824
101346.3604
101346.3363
101346.31
101346.2814
101346.2503
101346.2167
101346.1804
101346.1413
101346.0991
101346.0536
101346.0047
101345.9521
101345.8956
101345.8347
101345.7692
101345.6987
101345.6226
101345.5405
101345.4516
101345.3551
101345.2498
101345.1342
101345.0059
101344.8612
101344.6937
101344.4351
101341.9494
101339.1592
101339.1579
101339.1549
101339.1504
101339.1444
101339.1368
101339.1276
101339.1168
101339.1043
101339.09
101339.0741
101339.0562
101339.0365
101339.0148
101338.9911
101338.9652
101338.937
101338.9064
101338.8734
101338.8376
101338.7991
101338.7576
101338.713
101338.665
101338.6133
101338.5578
101338.4982
101338.434
101338.365
101338.2906
101338.2104
101338.1237
101338.0297
101337.9272
101337.8147
101337.69
101337.5497
101337.388
101337.1217
101334.0962
101331.8129
101331.8116
101331.8087
101331.8043
101331.7983
101331.7909
101331.7818
101331.7712
101331.7589
101331.7449
101331.7292
101331.7117
101331.6923
101331.671
101331.6476
101331.6222
101331.5945
101331.5645
101331.532
101331.497
101331.4592
101331.4185
101331.3748
101331.3278
101331.2772
101331.223
101331.1647
101331.1021
101331.0348
101330.9625
101330.8845
101330.8003
101330.7092
101330.6102
101330.5018
101330.3822
101330.2485
101330.0963
101329.8248
101326.2675
101324.468
101324.4667
101324.4638
101324.4595
101324.4537
101324.4463
101324.4375
101324.427
101324.415
101324.4013
101324.3859
101324.3687
101324.3497
101324.3288
101324.3059
101324.281
101324.2539
101324.2245
101324.1927
101324.1585
101324.1215
101324.0817
101324.039
101323.9931
101323.9438
101323.8909
101323.8342
101323.7734
101323.708
101323.6379
101323.5625
101323.4812
101323.3936
101323.2986
101323.1951
101323.0818
101322.9564
101322.8161
101322.5392
101318.4387
101317.1243
101317.1231
101317.1203
101317.1161
101317.1104
101317.1032
101317.0945
101317.0843
101317.0725
101317.0591
101317.0441
101317.0273
101317.0087
101316.9883
101316.9659
101316.9416
101316.9151
101316.8864
101316.8554
101316.8219
101316.7859
101316.7472
101316.7056
101316.6609
101316.613
101316.5616
101316.5066
101316.4476
101316.3845
101316.3168
101316.2441
101316.1662
101316.0823
101315.9918
101315.894
101315.7877
101315.6718
101315.5449
101315.2608
101310.6199
101309.782
101309.7808
101309.7781
101309.774
101309.7684
101309.7614
101309.7529
101309.743
101309.7315
101309.7184
101309.7037
101309.6874
101309.6693
101309.6494
101309.6276
101309.6038
101309.5781
101309.5501
101309.52
101309.4874
101309.4524
101309.4148
101309.3743
101309.331
101309.2846
101309.2349
101309.1817
101309.1248
101309.0639
101308.9989
101308.9293
101308.8548
101308.775
101308.6895
101308.5977
101308.4991
101308.3931
101308.2799
101307.9863
101302.837
101302.441
101302.4398
101302.4371
101302.4331
101302.4277
101302.4209
101302.4127
101302.403
101302.3918
101302.3791
101302.3648
101302.3489
101302.3313
101302.312
101302.2908
101302.2678
101302.2427
101302.2156
101302.1864
101302.1548
101302.1209
101302.0844
101302.0453
101302.0034
101301.9586
101301.9106
101301.8594
101301.8047
101301.7463
101301.684
101301.6176
101301.5468
101301.4714
101301.391
101301.3055
101301.2146
101301.1186
101301.0183
101300.7102
101295.1236
101295.1012
101295.1
101295.0974
101295.0936
101295.0883
101295.0817
101295.0737
101295.0643
101295.0535
101295.0412
101295.0273
101295.0119
101294.9949
101294.9761
101294.9556
101294.9333
101294.9091
101294.8829
101294.8546
101294.8241
101294.7913
101294.7561
101294.7183
101294.678
101294.6348
101294.5887
101294.5396
101294.4872
101294.4314
101294.372
101294.3089
101294.2419
101294.1709
101294.0958
101294.0166
101293.9334
101293.8469
101293.7583
101293.4299
101287.3563
101287.7625
101287.7614
101287.759
101287.7552
101287.7501
101287.7437
101287.736
101287.7269
101287.7165
101287.7046
101287.6912
101287.6763
101287.6598
101287.6418
101287.622
101287.6004
101287.577
101287.5518
101287.5245
101287.4951
101287.4635
101287.4296
101287.3934
101287.3546
101287.3132
101287.2691
101287.222
101287.172
101287.1189
101287.0625
101287.0029
101286.9398
101286.8733
101286.8034
101286.7303
101286.6545
101286.5768
101286.4987
101286.1443
101279.6189
101280.4251
101280.424
101280.4216
101280.418
101280.4131
101280.407
101280.3995
101280.3908
101280.3807
101280.3692
101280.3564
101280.342
101280.3262
101280.3088
101280.2897
101280.269
101280.2465
101280.2222
101280.196
101280.1678
101280.1375
101280.105
101280.0703
101280.0332
101279.9936
101279.9515
101279.9067
101279.8591
101279.8087
101279.7554
101279.6992
101279.64
101279.578
101279.5132
101279.4461
101279.3773
101279.3076
101279.2386
101278.8544
101271.8562
101273.0887
101273.0877
101273.0854
101273.0819
101273.0772
101273.0713
101273.0642
101273.0558
101273.0461
101273.0351
101273.0228
101273.009
101272.9939
101272.9772
101272.9589
101272.9391
101272.9175
101272.8943
101272.8692
101272.8422
101272.8132
101272.7822
101272.749
101272.7136
101272.676
101272.6359
101272.5934
101272.5483
101272.5007
101272.4505
101272.3977
101272.3424
101272.2847
101272.225
101272.1635
101272.1011
101272.0387
101271.9779
101271.5638
101264.0975
101265.7535
101265.7525
101265.7503
101265.747
101265.7425
101265.7368
101265.73
101265.722
101265.7127
101265.7022
101265.6904
101265.6773
101265.6628
101265.6468
101265.6294
101265.6105
101265.5899
101265.5677
101265.5438
101265.5181
101265.4905
101265.461
101265.4294
101265.3958
101265.3601
101265.3221
101265.2819
101265.2394
101265.1946
101265.1474
101265.0981
101265.0466
101264.9932
101264.9382
101264.8821
101264.8256
101264.7698
101264.716
101264.272
101256.3313
101258.4192
101258.4183
101258.4162
101258.413
101258.4087
101258.4034
101258.3969
101258.3893
101258.3805
101258.3705
101258.3592
101258.3467
101258.3329
101258.3178
101258.3012
101258.2832
101258.2637
101258.2426
101258.2199
101258.1955
101258.1693
101258.1413
101258.1115
101258.0797
101258.0459
101258.0101
101257.9722
101257.9322
101257.8902
101257.8461
101257.8001
101257.7523
101257.703
101257.6525
101257.6014
101257.5504
101257.5004
101257.4528
101256.9782
101248.5567
101251.0859
101251.085
101251.0831
101251.0801
101251.076
101251.0709
101251.0648
101251.0576
101251.0492
101251.0397
101251.0291
101251.0173
101251.0042
101250.9899
101250.9742
101250.9571
101250.9387
101250.9187
101250.8973
101250.8742
101250.8495
101250.8231
101250.795
101250.765
101250.7332
101250.6996
101250.6641
101250.6266
101250.5874
101250.5463
101250.5036
101250.4594
101250.414
101250.3678
101250.3213
101250.2752
101250.2305
101250.1881
101249.6824
101240.7801
101243.7536
101243.7527
101243.7509
101243.748
101243.7442
101243.7394
101243.7336
101243.7268
101243.719
101243.7101
101243.7
101243.6889
101243.6766
101243.6631
101243.6483
101243.6323
101243.6149
101243.5961
101243.576
101243.5543
101243.5311
101243.5063
101243.4799
101243.4518
101243.4221
101243.3906
101243.3574
101243.3225
101243.286
101243.2479
101243.2084
101243.1677
101243.126
101243.0838
101243.0416
101242.9999
101242.9598
101242.922
101242.3848
101232.9951
101236.4221
101236.4213
101236.4196
101236.4169
101236.4133
101236.4088
101236.4034
101236.397
101236.3897
101236.3813
101236.3719
101236.3615
101236.35
101236.3373
101236.3235
101236.3085
101236.2922
101236.2747
101236.2558
101236.2356
101236.2139
101236.1907
101236.1661
101236.1399
101236.1122
101236.0829
101236.0521
101236.0197
101235.9859
101235.9507
101235.9143
101235.8769
101235.8388
101235.8003
101235.762
101235.7245
101235.6884
101235.6545
101235.0856
101225.2109
101229.0914
101229.0907
101229.0891
101229.0866
101229.0833
101229.0791
101229.074
101229.0681
101229.0613
101229.0535
101229.0448
101229.035
101229.0243
101229.0126
101228.9997
101228.9858
101228.9707
101228.9543
101228.9368
101228.918
101228.8979
101228.8764
101228.8535
101228.8293
101228.8036
101228.7765
101228.748
101228.7181
101228.687
101228.6546
101228.6212
101228.587
101228.5522
101228.5173
101228.4826
101228.4487
101228.4163
101228.3858
101227.7851
101217.4212
101221.7615
101221.7608
101221.7593
101221.757
101221.754
101221.7501
101221.7455
101221.74
101221.7337
101221.7265
101221.7184
101221.7095
101221.6996
101221.6887
101221.6769
101221.664
101221.65
101221.635
101221.6188
101221.6015
101221.5829
101221.5631
101221.542
101221.5197
101221.4961
101221.4712
101221.445
101221.4176
101221.389
101221.3594
101221.329
101221.2978
101221.2662
101221.2345
101221.2032
101221.1727
101221.1436
101221.1161
101220.4836
101209.6268
101214.4323
101214.4317
101214.4303
101214.4282
101214.4254
101214.4219
101214.4176
101214.4126
101214.4068
101214.4002
101214.3929
101214.3847
101214.3756
101214.3657
101214.3548
101214.3431
101214.3303
101214.3166
101214.3018
101214.2859
101214.2689
101214.2508
101214.2316
101214.2112
101214.1896
101214.1669
101214.143
101214.118
101214.092
101214.0651
101214.0374
101214.0092
101213.9806
101213.952
101213.9238
101213.8963
101213.8702
101213.8455
101213.1811
101201.8322
101207.1037
101207.1032
101207.1019
101207.1
101207.0975
101207.0943
101207.0904
101207.0859
101207.0807
101207.0747
101207.068
101207.0606
101207.0524
101207.0434
101207.0336
101207.023
101207.0114
101206.999
101206.9856
101206.9712
101206.9558
101206.9395
101206.922
101206.9036
101206.8841
101206.8635
101206.8419
101206.8193
101206.7958
101206.7716
101206.7466
101206.7211
101206.6954
101206.6697
101206.6444
101206.6197
101206.5963
101206.574
101205.8778
101194.0372
101199.7757
101199.7752
101199.7741
101199.7724
101199.7702
101199.7673
101199.7639
101199.7598
101199.7551
101199.7498
101199.7439
101199.7372
101199.7299
101199.7219
101199.7131
101199.7036
101199.6933
101199.6821
101199.6702
101199.6573
101199.6436
101199.6289
101199.6133
101199.5968
101199.5793
101199.5609
101199.5416
101199.5214
101199.5004
101199.4786
101199.4563
101199.4335
101199.4105
101199.3876
101199.3649
101199.3429
101199.3218
101199.3017
101198.5738
101186.2419
101192.4483
101192.4478
101192.4469
101192.4454
101192.4434
101192.4409
101192.4378
101192.4343
101192.4302
101192.4255
101192.4203
101192.4144
101192.408
101192.4009
101192.3932
101192.3849
101192.3758
101192.366
101192.3554
101192.3441
101192.332
101192.3191
101192.3054
101192.2908
101192.2754
101192.2591
101192.242
101192.2242
101192.2056
101192.1863
101192.1666
101192.1464
101192.126
101192.1056
101192.0854
101192.0658
101192.047
101192.0289
101191.2691
101178.4462
101185.1213
101185.1209
101185.12
101185.1188
101185.117
101185.1149
101185.1123
101185.1092
101185.1057
101185.1017
101185.0972
101185.0922
101185.0866
101185.0805
101185.0739
101185.0667
101185.0589
101185.0504
101185.0413
101185.0316
101185.0211
101185.01
101184.9981
101184.9855
101184.9721
101184.958
101184.9431
101184.9276
101184.9114
101184.8946
101184.8773
101184.8596
101184.8417
101184.8237
101184.8059
101184.7885
101184.7718
101184.7556
101183.9639
101170.6502
101177.7946
101177.7943
101177.7936
101177.7926
101177.7911
101177.7893
101177.7871
101177.7846
101177.7816
101177.7783
101177.7745
101177.7703
101177.7657
101177.7606
101177.7551
101177.749
101177.7425
101177.7354
101177.7278
101177.7196
101177.7108
101177.7014
101177.6914
101177.6807
101177.6694
101177.6574
101177.6448
101177.6315
101177.6177
101177.6033
101177.5884
101177.5731
101177.5576
101177.542
101177.5264
101177.5112
101177.4964
101177.4818
101176.6582
101162.8539
101170.4683
101170.4681
101170.4675
101170.4667
101170.4655
101170.4641
101170.4623
101170.4603
101170.4579
101170.4552
101170.4522
101170.4489
101170.4452
101170.4411
101170.4366
101170.4318
101170.4265
101170.4208
101170.4147
101170.408
101170.4009
101170.3933
101170.3852
101170.3764
101170.3672
101170.3573
101170.3469
101170.3359
101170.3244
101170.3124
101170.2999
101170.287
101170.2738
101170.2604
101170.247
101170.2338
101170.2208
101170.2077
101169.352
101155.0573
101163.1423
101163.1421
101163.1417
101163.1411
101163.1402
101163.1391
101163.1378
101163.1363
101163.1345
101163.1325
101163.1302
101163.1277
101163.1249
101163.1219
101163.1185
101163.1149
101163.1109
101163.1066
101163.1019
101163.0969
101163.0915
101163.0856
101163.0793
101163.0726
101163.0654
101163.0577
101163.0495
101163.0408
101163.0316
101163.0219
101163.0117
101163.0012
101162.9902
101162.9791
101162.9677
101162.9564
101162.9451
101162.9335
101162.0455
101147.2605
101155.8165
101155.8163
101155.8161
101155.8156
101155.8151
101155.8144
101155.8135
101155.8125
101155.8113
101155.81
101155.8085
101155.8068
101155.8049
101155.8029
101155.8007
101155.7982
101155.7955
101155.7926
101155.7895
101155.786
101155.7823
101155.7782
101155.7739
101155.7691
101155.764
101155.7584
101155.7524
101155.746
101155.7391
101155.7317
101155.7239
101155.7156
101155.7069
101155.6979
101155.6886
101155.6791
101155.6695
101155.6592
101154.7387
101139.4634
101148.4908
101148.4907
101148.4906
101148.4904
101148.4901
101148.4897
101148.4893
101148.4888
101148.4882
101148.4876
101148.4868
101148.486
101148.4851
101148.4841
101148.4829
101148.4817
101148.4803
101148.4788
101148.4772
101148.4754
101148.4733
101148.4711
101148.4686
101148.4659
101148.4628
101148.4594
101148.4557
101148.4515
101148.4469
101148.4419
101148.4364
101148.4304
101148.4239
101148.417
101148.4096
101148.4019
101148.3939
101148.3849
101147.4315
101131.6663
101141.1651
101141.1651
101141.1651
101141.1651
101141.1651
101141.1652
101141.1652
101141.1652
101141.1652
101141.1652
101141.1653
101141.1653
101141.1653
101141.1653
101141.1653
101141.1653
101141.1653
101141.1652
101141.165
101141.1648
101141.1645
101141.1641
101141.1635
101141.1628
101141.1619
101141.1606
101141.1591
101141.1573
101141.155
101141.1523
101141.1492
101141.1454
101141.1412
101141.1363
101141.1309
101141.125
101141.1185
101141.1107
101140.1239
101123.8687
101133.8395
101133.8395
101133.8397
101133.8399
101133.8402
101133.8406
101133.841
101133.8416
101133.8422
101133.8429
101133.8437
101133.8446
101133.8455
101133.8466
101133.8477
101133.8489
101133.8502
101133.8515
101133.8529
101133.8543
101133.8558
101133.8572
101133.8585
101133.8598
101133.861
101133.862
101133.8628
101133.8633
101133.8634
101133.863
101133.8622
101133.8608
101133.8588
101133.856
101133.8526
101133.8484
101133.8434
101133.8368
101132.8156
101116.1011
101126.5138
101126.5139
101126.5142
101126.5146
101126.5152
101126.5159
101126.5168
101126.5179
101126.5191
101126.5205
101126.5221
101126.5238
101126.5257
101126.5278
101126.53
101126.5325
101126.535
101126.5378
101126.5407
101126.5438
101126.547
101126.5502
101126.5535
101126.5569
101126.5602
101126.5635
101126.5665
101126.5694
101126.5719
101126.574
101126.5755
101126.5765
101126.5767
101126.5761
101126.5746
101126.5721
101126.5687
101126.5633
101125.5067
101108.3523
101119.1879
101119.1881
101119.1885
101119.1892
101119.19
101119.1912
101119.1925
101119.1941
101119.1959
101119.198
101119.2003
101119.2028
101119.2057
101119.2088
101119.2122
101119.2158
101119.2197
101119.2239
101119.2284
101119.2331
101119.238
101119.2432
101119.2485
101119.2539
101119.2594
101119.2649
101119.2703
101119.2756
101119.2805
101119.2851
101119.2891
101119.2924
101119.2949
101119.2965
101119.297
101119.2964
101119.2945
101119.2904
101118.1972
101100.5802
101111.8618
101111.8621
101111.8627
101111.8635
101111.8647
101111.8662
101111.8679
101111.87
101111.8724
101111.8752
101111.8782
101111.8817
101111.8854
101111.8896
101111.8941
101111.899
101111.9042
101111.9098
101111.9158
101111.9222
101111.9289
101111.9359
101111.9432
101111.9507
101111.9584
101111.9662
101111.9741
101111.9818
101111.9893
101111.9964
101112.0029
101112.0087
101112.0136
101112.0174
101112.02
101112.0212
101112.0209
101112.0182
101110.8878
101092.8355
101104.5355
101104.5358
101104.5365
101104.5376
101104.5391
101104.5409
101104.5431
101104.5457
101104.5487
101104.5521
101104.5559
101104.5602
101104.5649
101104.57
101104.5757
101104.5818
101104.5883
101104.5954
101104.6029
101104.6109
101104.6194
101104.6283
101104.6376
101104.6473
101104.6573
101104.6674
101104.6777
101104.688
101104.698
101104.7078
101104.7169
101104.7253
101104.7327
101104.7388
101104.7435
101104.7466
101104.748
101104.7465
101103.5771
101085.1249
101097.2088
101097.2092
101097.2101
101097.2113
101097.2131
101097.2152
101097.2179
101097.221
101097.2246
101097.2286
101097.2332
101097.2383
101097.2439
101097.2501
101097.2568
101097.2641
101097.272
101097.2805
101097.2896
101097.2993
101097.3095
101097.3204
101097.3317
101097.3435
101097.3558
101097.3684
101097.3812
101097.394
101097.4068
101097.4193
101097.4311
101097.4422
101097.4522
101097.4608
101097.4677
101097.4728
101097.4758
101097.4753
101096.2629
101077.3903
101089.8818
101089.8822
101089.8832
101089.8847
101089.8867
101089.8892
101089.8923
101089.8959
101089.9
101089.9047
101089.91
101089.916
101089.9225
101089.9297
101089.9375
101089.946
101089.9552
101089.9651
101089.9758
101089.9871
101089.9991
101090.0119
101090.0253
101090.0393
101090.0539
101090.069
101090.0844
101090.0999
101090.1155
101090.1308
101090.1455
101090.1595
101090.1722
101090.1834
101090.1927
101090.1999
101090.2046
101090.2053
101088.9494
101069.5944
101082.5543
101082.5548
101082.5559
101082.5576
101082.5598
101082.5627
101082.5662
101082.5702
101082.5749
101082.5803
101082.5863
101082.5931
101082.6005
101082.6087
101082.6176
101082.6273
101082.6378
101082.6491
101082.6613
101082.6743
101082.6882
101082.7028
101082.7183
101082.7346
101082.7516
101082.7691
101082.7872
101082.8055
101082.824
101082.8423
101082.8601
101082.877
101082.8927
101082.9067
101082.9186
101082.928
101082.9346
101082.9368
101081.6373
101062.0044
101075.2262
101075.2268
101075.228
101075.2299
101075.2324
101075.2356
101075.2395
101075.244
101075.2493
101075.2553
101075.262
101075.2696
101075.2779
101075.287
101075.297
101075.3079
101075.3197
101075.3324
101075.3461
101075.3608
101075.3764
101075.3931
101075.4106
101075.4292
101075.4485
101075.4687
101075.4895
101075.5108
101075.5323
101075.5537
101075.5748
101075.5949
101075.6138
101075.6308
101075.6454
101075.6572
101075.6658
101075.6695
101074.326
101054.321
101067.8976
101067.8982
101067.8996
101067.9016
101067.9044
101067.9079
101067.9122
101067.9172
101067.923
101067.9296
101067.9371
101067.9454
101067.9546
101067.9647
101067.9757
101067.9878
101068.0008
101068.0149
101068.0301
101068.0465
101068.0639
101068.0825
101068.1022
101068.1229
101068.1448
101068.1676
101068.1912
101068.2155
101068.2402
101068.265
101068.2895
101068.3131
101068.3354
101068.3557
101068.3733
101068.3877
101068.3984
101068.4033
101067.0136
101046.5984
101060.5683
101060.569
101060.5705
101060.5727
101060.5758
101060.5796
101060.5842
101060.5897
101060.596
101060.6032
101060.6114
101060.6204
101060.6304
101060.6415
101060.6536
101060.6667
101060.6811
101060.6966
101060.7132
101060.7312
101060.7504
101060.7709
101060.7927
101060.8158
101060.8401
101060.8656
101060.8922
101060.9196
101060.9477
101060.976
101061.0041
101061.0316
101061.0576
101061.0815
101061.1025
101061.1197
101061.1326
101061.1387
101059.7047
101038.9019
101053.2383
101053.2391
101053.2407
101053.2431
101053.2464
101053.2505
101053.2555
101053.2614
101053.2683
101053.2761
101053.2848
101053.2946
101053.3055
101053.3174
101053.3305
101053.3448
101053.3603
101053.3772
101053.3953
101053.4149
101053.4359
101053.4583
101053.4822
101053.5076
101053.5345
101053.5627
101053.5923
101053.6229
101053.6545
101053.6866
101053.7187
101053.7502
101053.7804
101053.8083
101053.833
101053.8535
101053.8688
101053.8762
101052.3991
101031.2099
101045.9076
101045.9084
101045.9101
101045.9127
101045.9162
101045.9207
101045.926
101045.9324
101045.9397
101045.948
101045.9574
101045.9679
101045.9795
101045.9924
101046.0065
101046.0218
101046.0386
101046.0567
101046.0763
101046.0974
101046.1201
101046.1445
101046.1705
101046.1982
101046.2276
101046.2586
101046.2913
101046.3253
101046.3605
101046.3966
101046.433
101046.469
101046.5038
101046.5362
101046.5652
101046.5893
101046.6075
101046.6162
101045.0988
101023.3496
101038.5761
101038.5769
101038.5787
101038.5815
101038.5852
101038.5899
101038.5957
101038.6024
101038.6102
101038.619
101038.629
101038.6402
101038.6526
101038.6663
101038.6813
101038.6977
101038.7156
101038.735
101038.756
101038.7787
101038.8031
101038.8293
101038.8574
101038.8874
101038.9193
101038.9532
101038.989
101039.0265
101039.0656
101039.1058
101039.1468
101039.1877
101039.2276
101039.2653
101039.2992
101039.3276
101039.349
101039.3594
101037.8016
101015.4621
101031.2437
101031.2445
101031.2465
101031.2494
101031.2533
101031.2583
101031.2644
101031.2715
101031.2797
101031.2891
101031.2997
101031.3115
101031.3246
101031.3391
101031.3551
101031.3725
101031.3915
101031.4121
101031.4344
101031.4586
101031.4847
101031.5127
101031.5428
101031.5751
101031.6096
101031.6463
101031.6852
101031.7263
101031.7693
101031.8141
101031.86
101031.9063
101031.9519
101031.9955
101032.0351
101032.0687
101032.0941
101032.1063
101030.5056
101007.5581
101023.9104
101023.9113
101023.9133
101023.9164
101023.9205
101023.9258
101023.9321
101023.9396
101023.9482
101023.9581
101023.9692
101023.9817
101023.9955
101024.0108
101024.0275
101024.0459
101024.066
101024.0878
101024.1114
101024.137
101024.1647
101024.1945
101024.2266
101024.2611
101024.298
101024.3376
101024.3797
101024.4244
101024.4716
101024.521
101024.5722
101024.6244
101024.6764
101024.7268
101024.7732
101024.8131
101024.8434
101024.8579
101023.2064
100999.6339
101016.5761
101016.5771
101016.5792
101016.5824
101016.5867
101016.5922
101016.5988
101016.6067
101016.6157
101016.626
101016.6377
101016.6507
101016.6652
101016.6811
101016.6987
101016.718
101016.7391
101016.762
101016.7869
101016.8139
101016.843
101016.8746
101016.9086
101016.9452
101016.9846
101017.0269
101017.0722
101017.1205
101017.172
101017.2263
101017.2831
101017.3417
101017.4009
101017.4591
101017.5137
101017.5612
101017.598
101017.6154
101015.897
100991.6913
101009.2409
101009.2418
101009.244
101009.2474
101009.2519
101009.2576
101009.2645
101009.2726
101009.282
101009.2928
101009.3049
101009.3185
101009.3335
101009.3502
101009.3686
101009.3887
101009.4107
101009.4346
101009.4607
101009.489
101009.5196
101009.5528
101009.5886
101009.6272
101009.669
101009.7139
101009.7624
101009.8144
101009.8701
101009.9294
101009.9921
101010.0576
101010.1249
101010.1921
101010.2564
101010.3138
101010.359
101010.3804
101008.5661
100983.7242
101001.9046
101001.9056
101001.9079
101001.9113
101001.916
101001.9219
101001.9291
101001.9375
101001.9472
101001.9584
101001.9709
101001.985
101002.0006
101002.0179
101002.037
101002.0579
101002.0807
101002.1057
101002.1328
101002.1623
101002.1943
101002.229
101002.2665
101002.3071
101002.351
101002.3985
101002.45
101002.5055
101002.5655
101002.6299
101002.6988
101002.7717
101002.8478
101002.9254
101003.0014
101003.071
101003.1279
101003.1551
101001.1955
100975.7175
100994.5672
100994.5683
100994.5706
100994.5742
100994.579
100994.5851
100994.5925
100994.6012
100994.6112
100994.6227
100994.6356
100994.6501
100994.6663
100994.6841
100994.7038
100994.7255
100994.7492
100994.775
100994.8031
100994.8338
100994.867
100994.903
100994.9421
100994.9845
100995.0305
100995.0804
100995.1346
100995.1936
100995.2577
100995.3272
100995.4023
100995.483
100995.5687
100995.658
100995.7479
100995.8333
100995.9061
100995.9422
100993.7538
100967.6398
100987.2287
100987.2298
100987.2322
100987.2359
100987.2408
100987.2471
100987.2547
100987.2636
100987.274
100987.2857
100987.299
100987.3139
100987.3305
100987.3489
100987.3692
100987.3915
100987.4159
100987.4425
100987.4716
100987.5032
100987.5376
100987.5749
100987.6154
100987.6594
100987.7072
100987.7592
100987.8161
100987.8782
100987.9462
100988.0206
100988.1019
100988.1905
100988.2864
100988.3887
100988.495
100988.6002
100988.6951
100988.7445
100986.1866
100959.4152
100979.8891
100979.8902
100979.8927
100979.8964
100979.9015
100979.9079
100979.9157
100979.9249
100979.9354
100979.9475
100979.9611
100979.9763
100979.9933
100980.0121
100980.0329
100980.0558
100980.0808
100980.1082
100980.1381
100980.1706
100980.206
100980.2444
100980.2861
100980.3315
100980.3809
100980.4349
100980.494
100980.559
100980.6305
100980.7094
100980.7966
100980.893
100980.9993
100981.1155
100981.2404
100981.3703
100981.4955
100981.5636
100978.3999
100950.9308
100972.5482
100972.5494
100972.552
100972.5558
100972.5609
100972.5675
100972.5755
100972.5848
100972.5956
100972.6078
100972.6217
100972.6372
100972.6545
100972.6737
100972.6949
100972.7183
100972.7439
100972.7719
100972.8025
100972.8358
100972.8721
100972.9115
100972.9543
100973.0008
100973.0515
100973.107
100973.168
100973.2354
100973.31
100973.3929
100973.4854
100973.589
100973.7054
100973.8358
100973.9811
100974.1408
100974.3066
100974.3954
100970.2211
100941.5931
100965.2062
100965.2075
100965.2102
100965.2139
100965.2192
100965.2259
100965.234
100965.2435
100965.2544
100965.2668
100965.2808
100965.2965
100965.3141
100965.3336
100965.3552
100965.379
100965.405
100965.4336
100965.4647
100965.4987
100965.5357
100965.5759
100965.6196
100965.6671
100965.7186
100965.7753
100965.8378
100965.9071
100965.9842
100966.0702
100966.1671
100966.277
100966.4022
100966.5456
100966.7106
100966.9024
100967.1196
100967.2027
100961.42
100931.5194
100957.8624
100957.8641
100957.8667
100957.8706
100957.8757
100957.8823
100957.8905
100957.9
100957.9109
100957.9232
100957.9372
100957.9529
100957.9705
100957.9901
100958.0119
100958.0359
100958.0622
100958.0911
100958.1226
100958.157
100958.1945
100958.2352
100958.2795
100958.3274
100958.3792
100958.4364
100958.4997
100958.5702
100958.6487
100958.7366
100958.8362
100958.9504
100959.0822
100959.2349
100959.4139
100959.6291
100959.8768
100957.8684
100945.2538
100906.2954
100574.232
100574.2971
100574.3704
100574.4634
100574.6128
100574.8174
100575.0682
100575.3582
100575.6868
100576.0585
100576.479
100576.952
100577.4796
100578.0666
100578.7231
100579.451
100580.2383
100581.1059
100582.0486
100583.0804
100584.2062
100585.4189
100586.7441
100588.1797
100589.7408
100591.4511
100593.3216
100595.3995
100597.7042
100600.2657
100603.1388
100606.4124
100610.13
100614.31
100619.013
100624.5361
100631.5932
100646.7843
100695.9978
100748.5069
100520.1769
100520.2029
100520.2143
100520.2196
100520.2237
100520.2277
100520.2321
100520.2368
100520.2416
100520.2469
100520.2528
100520.2595
100520.267
100520.2755
100520.2853
100520.2975
100520.3094
100520.3239
100520.3401
100520.3589
100520.3816
100520.4055
100520.4338
100520.4664
100520.5047
100520.5519
100520.6057
100520.6726
100520.7574
100520.8684
100521.0153
100521.2289
100521.5589
100522.0909
100522.9146
100523.9283
100524.5878
100524.0895
100520.7279
100522.9928
100520.0032
100520.0031
100520.0031
100520.0031
100520.0031
100520.0031
100520.0031
100520.0031
100520.0031
100520.0032
100520.0032
100520.0032