/*--------------------------------*- C++ -*----------------------------------*\
| =========                 |                                                 |
| \\      /  F ield         | OpenFOAM: The Open Source CFD Toolbox           |
|  \\    /   O peration     | Version:  v1912                                 |
|   \\  /    A nd           | Website:  www.openfoam.com                      |
|    \\/     M anipulation  |                                                 |
\*---------------------------------------------------------------------------*/
FoamFile
{
    version     2.0;
    format      ascii;
    class       surfaceScalarField;
    location    "0.2";
    object      phi;
}
// * * * * * * * * * * * * * * * * * * * * * * * * * * * * * * * * * * * * * //

dimensions      [0 3 -1 0 0 0 0];
oriented        oriented;


internalField   nonuniform List<scalar> 
9440
(
2.542571545e-11
-2.542571548e-11
1.020254845e-10
-7.65998924e-11
2.307836229e-10
-1.287584133e-10
4.133784062e-10
-1.825951949e-10
6.521936472e-10
-2.388157951e-10
9.503488121e-10
-2.981558484e-10
1.311739459e-09
-3.613914288e-10
1.741089608e-09
-4.293509804e-10
2.244017657e-09
-5.029289265e-10
2.827118244e-09
-5.831015353e-10
3.498063024e-09
-6.709458289e-10
4.265724333e-09
-7.676624664e-10
5.140327e-09
-8.746038382e-10
6.133634952e-09
-9.933090074e-10
7.259181537e-09
-1.12554743e-09
8.532555493e-09
-1.273374536e-09
9.971757849e-09
-1.439202699e-09
1.159765106e-08
-1.625893299e-09
1.343452797e-08
-1.836876734e-09
1.55108392e-08
-2.076310817e-09
1.78601324e-08
-2.349292472e-09
2.052227619e-08
-2.662142797e-09
2.354507485e-08
-3.022797373e-09
2.698642386e-08
-3.441347614e-09
3.091722647e-08
-3.930801095e-09
3.542540048e-08
-4.508172292e-09
4.062147671e-08
-5.196074044e-09
4.664657044e-08
-6.025091084e-09
5.368398242e-08
-7.037409033e-09
6.197650462e-08
-8.292519182e-09
7.185299488e-08
-9.876487034e-09
8.377059386e-08
-1.191759543e-08
9.838457406e-08
-1.461397618e-08
1.166697979e-07
-1.82852197e-08
1.401455072e-07
-2.347570494e-08
1.713284361e-07
-3.118292442e-08
2.147988304e-07
-4.347039055e-08
2.805242406e-07
-6.572540393e-08
4.306996029e-07
-1.501753559e-07
4.437467945e-07
2.541202455e-11
-5.083786818e-11
1.019377605e-10
-1.531259985e-10
2.30578223e-10
-2.573995157e-10
4.130189311e-10
-3.650367994e-10
6.516547334e-10
-4.774527025e-10
9.496190694e-10
-5.961214479e-10
1.310824352e-09
-7.225980986e-10
1.740014193e-09
-8.585423281e-10
2.242829144e-09
-1.005745515e-09
2.825888193e-09
-1.166162379e-09
3.496889086e-09
-1.341948611e-09
4.264731233e-09
-1.53550648e-09
5.139666354e-09
-1.749540666e-09
6.133483592e-09
-1.987127607e-09
7.259737544e-09
-2.251802338e-09
8.534031051e-09
-2.547668527e-09
9.974367544e-09
-2.879539285e-09
1.160159353e-08
-3.253118988e-09
1.343995811e-08
-3.675240563e-09
1.551782681e-08
-4.154178302e-09
1.78686005e-08
-4.700064416e-09
2.053190993e-08
-5.325450163e-09
2.355518637e-08
-6.046071436e-09
2.699574936e-08
-6.881907935e-09
3.092362044e-08
-7.858668948e-09
3.542536666e-08
-9.00991461e-09
4.060943656e-08
-1.038013937e-08
4.661369956e-08
-1.20293491e-08
5.361631058e-08
-1.404001474e-08
6.185171916e-08
-1.652792208e-08
7.163485741e-08
-1.965961896e-08
8.339873269e-08
-2.368146388e-08
9.775472191e-08
-2.896995807e-08
1.155925864e-07
-3.612307684e-08
1.382519131e-07
-4.613502444e-08
1.678194613e-07
-6.075046339e-08
2.075350623e-07
-8.318598514e-08
2.606598461e-07
-1.188501852e-07
3.365765406e-07
-2.261022028e-07
7.952583062e-07
2.520712709e-11
-7.60451021e-11
1.011196291e-10
-2.290388326e-10
2.287245755e-10
-3.850050283e-10
4.096931464e-10
-5.460061605e-10
6.463981723e-10
-7.141586975e-10
9.419432449e-10
-8.916676131e-10
1.300202154e-09
-1.080858196e-09
1.725869777e-09
-1.284211243e-09
2.224526e-09
-1.504403154e-09
2.802714811e-09
-1.744352732e-09
3.468041464e-09
-2.007276861e-09
4.229291253e-09
-2.296757798e-09
5.09657474e-09
-2.616825503e-09
6.081505739e-09
-2.972059704e-09
7.197420034e-09
-3.367717456e-09
8.459645581e-09
-3.809894584e-09
9.885838054e-09
-4.305731965e-09
1.14964005e-08
-4.863681344e-09
1.331501184e-08
-5.493851465e-09
1.536929739e-08
-6.208463083e-09
1.769168776e-08
-7.022453598e-09
2.032052776e-08
-7.954288671e-09
2.330152336e-08
-9.027065225e-09
2.668964925e-08
-1.027003167e-08
3.055169223e-08
-1.172070924e-08
3.496968287e-08
-1.342790202e-08
4.004558879e-08
-1.545604167e-08
4.590782272e-08
-1.789157917e-08
5.272040137e-08
-2.085258917e-08
6.069603191e-08
-2.450354799e-08
7.011508676e-08
-2.907866863e-08
8.135343971e-08
-3.491981149e-08
9.492345106e-08
-4.253996385e-08
1.115332043e-07
-5.273282445e-08
1.321651493e-07
-6.676696448e-08
1.581481241e-07
-8.673343039e-08
1.911046941e-07
-1.161425475e-07
2.326246581e-07
-1.603701687e-07
2.688011442e-07
-2.622956897e-07
1.081214803e-06
2.490120481e-11
-1.009464173e-10
9.98942714e-11
-3.04032246e-10
2.259514841e-10
-5.110628119e-10
4.047207945e-10
-7.247762415e-10
6.385416578e-10
-9.479804948e-10
9.304728621e-10
-1.183599871e-09
1.28433042e-09
-1.434716904e-09
1.70473639e-09
-1.704618468e-09
2.197180097e-09
-1.996848217e-09
2.768093676e-09
-2.315267753e-09
3.424944558e-09
-2.664129199e-09
4.176348181e-09
-3.04816278e-09
5.032205295e-09
-3.472683818e-09
6.00386949e-09
-3.94372491e-09
7.104352206e-09
-4.468200992e-09
8.34857458e-09
-5.054117563e-09
9.753678528e-09
-5.710836258e-09
1.133941315e-08
-6.449416049e-09
1.312861801e-08
-7.283056129e-09
1.51478317e-08
-8.22767628e-09
1.742806347e-08
-9.302684503e-09
2.000577965e-08
-1.053200359e-08
2.292417461e-08
-1.194545853e-08
2.623482149e-08
-1.358067648e-08
2.999983532e-08
-1.54857206e-08
3.429472981e-08
-1.772279367e-08
3.921222082e-08
-2.037352953e-08
4.48673261e-08
-2.354668099e-08
5.140423355e-08
-2.738949274e-08
5.900555041e-08
-3.210486056e-08
6.790463768e-08
-3.797775129e-08
7.840156014e-08
-4.541672941e-08
9.088208028e-08
-5.502047941e-08
1.058352084e-07
-6.768594754e-08
1.238532887e-07
-8.478504103e-08
1.455702165e-07
-1.084503519e-07
1.714551664e-07
-1.420274812e-07
2.019052503e-07
-1.908202745e-07
2.169515322e-07
-2.773793059e-07
1.317288546e-06
2.449575181e-11
-1.254422864e-10
9.826774272e-11
-3.778045961e-10
2.222702607e-10
-6.350659031e-10
3.981206708e-10
-9.006274042e-10
6.281144111e-10
-1.177975139e-09
9.152512936e-10
-1.470737786e-09
1.263271367e-09
-1.782738124e-09
1.67670108e-09
-2.118049428e-09
2.160910953e-09
-2.481059425e-09
2.722186551e-09
-2.876544703e-09
3.367814916e-09
-3.309758893e-09
4.106189499e-09
-3.786538612e-09
4.946937265e-09
-4.313432699e-09
5.901072788e-09
-4.89786144e-09
6.981185744e-09
-5.548314806e-09
8.20166928e-09
-6.274601776e-09
9.578999892e-09
-7.088167304e-09
1.113208189e-08
-8.002498221e-09
1.288267357e-08
-9.033647746e-09
1.485591751e-08
-1.020091984e-08
1.70810037e-08
-1.152776993e-08
1.959200362e-08
-1.304300228e-08
2.242892427e-08
-1.47823775e-08
2.563904586e-08
-1.6790796e-08
2.927862513e-08
-1.912529755e-08
3.341506691e-08
-2.185923282e-08
3.812968396e-08
-2.508814362e-08
4.352117752e-08
-2.893817111e-08
4.970993898e-08
-3.357825028e-08
5.684314322e-08
-3.923806064e-08
6.510021414e-08
-4.62348179e-08
7.469723494e-08
-5.50137461e-08
8.588644076e-08
-6.620968119e-08
9.894136704e-08
-8.074086867e-08
1.141065314e-07
-9.995020184e-08
1.314691752e-07
-1.25812994e-07
1.506744047e-07
-1.612326899e-07
1.706042428e-07
-2.107501317e-07
1.699100887e-07
-2.767528164e-07
1.50752182e-06
2.399223742e-11
-1.494346448e-10
9.624726502e-11
-4.500599757e-10
2.176975396e-10
-7.565167297e-10
3.899229548e-10
-1.072853538e-09
6.151648834e-10
-1.403217937e-09
8.96350736e-10
-1.751924654e-09
1.23712742e-09
-2.123515954e-09
1.641904275e-09
-2.522827525e-09
2.115906515e-09
-2.955062958e-09
2.665240669e-09
-3.425880131e-09
3.296973834e-09
-3.941493271e-09
4.019229253e-09
-4.508795199e-09
4.841301331e-09
-5.135505871e-09
5.773793782e-09
-5.830354916e-09
6.828786263e-09
-6.603308151e-09
8.020035141e-09
-7.4658513e-09
9.363216711e-09
-8.431349278e-09
1.087622259e-08
-9.515504238e-09
1.257951957e-08
-1.073694462e-08
1.449658947e-08
-1.211798928e-08
1.665446782e-08
-1.36856474e-08
1.908440487e-08
-1.547293794e-08
2.182267552e-08
-1.752064638e-08
2.491156923e-08
-1.987968761e-08
2.840058991e-08
-2.261431598e-08
3.234788938e-08
-2.580652966e-08
3.682192814e-08
-2.956217927e-08
4.190329551e-08
-3.401953474e-08
4.76864673e-08
-3.936141792e-08
5.428095615e-08
-4.583254529e-08
6.181062865e-08
-5.376448614e-08
7.040856102e-08
-6.361167429e-08
8.020202503e-08
-7.600314121e-08
9.12768808e-08
-9.181571876e-08
1.036011824e-07
-1.122744981e-07
1.168721105e-07
-1.390839244e-07
1.302215048e-07
-1.74582062e-07
1.417984544e-07
-2.223270955e-07
1.299230774e-07
-2.64956396e-07
1.658407844e-06
2.339279913e-11
-1.728275623e-10
9.384180468e-11
-5.205093066e-10
2.1225387e-10
-8.74929304e-10
3.801649426e-10
-1.240765286e-09
5.997529428e-10
-1.622806777e-09
8.738603701e-10
-2.026033077e-09
1.206025007e-09
-2.455681726e-09
1.600519192e-09
-2.917322916e-09
2.062398401e-09
-3.416943393e-09
2.597560402e-09
-3.961043321e-09
3.212816367e-09
-4.556750355e-09
3.915975837e-09
-5.211955791e-09
4.715948079e-09
-5.935479198e-09
5.62286227e-09
-6.737270117e-09
6.648210719e-09
-7.628657407e-09
7.80501885e-09
-8.622659946e-09
9.108047647e-09
-9.734378316e-09
1.057403492e-08
-1.098149148e-08
1.222198249e-08
-1.238489191e-08
1.407349776e-08
-1.396950386e-08
1.615319805e-08
-1.576534659e-08
1.848918745e-08
-1.780892576e-08
2.111360996e-08
-2.014506706e-08
2.406327904e-08
-2.282935458e-08
2.738036564e-08
-2.593140025e-08
3.111309654e-08
-2.953925768e-08
3.531635131e-08
-3.376543055e-08
4.005192646e-08
-3.87551058e-08
4.538800841e-08
-4.469749549e-08
5.139697043e-08
-5.184150296e-08
5.814981807e-08
-6.051732934e-08
6.570417247e-08
-7.116602399e-08
7.408015043e-08
-8.437911496e-08
8.3214232e-08
-1.009497946e-07
9.287433611e-08
-1.21934594e-07
1.025083664e-07
-1.487179593e-07
1.109800674e-07
-1.830537417e-07
1.162337411e-07
-2.275807779e-07
9.78061191e-08
-2.466388341e-07
1.777618972e-06
2.270002417e-11
-1.955276953e-10
9.106190311e-11
-5.888714754e-10
2.059633591e-10
-9.898312206e-10
3.688903915e-10
-1.403692952e-09
5.819488214e-10
-1.835866019e-09
8.478847477e-10
-2.291969973e-09
1.170112228e-09
-2.777910292e-09
1.5527485e-09
-3.299960319e-09
2.000657266e-09
-3.864853274e-09
2.519500927e-09
-4.479888074e-09
3.115802804e-09
-5.153053287e-09
3.797020575e-09
-5.893174649e-09
4.571632736e-09
-6.710092427e-09
5.449239461e-09
-7.614877789e-09
6.440680518e-09
-8.620099153e-09
7.558172434e-09
-9.740152191e-09
8.815467541e-09
-1.099167346e-08
1.02280381e-08
-1.239406179e-08
1.181328739e-08
-1.397014068e-08
1.359078955e-08
-1.574700509e-08
1.55825563e-08
-1.775711204e-08
1.7813327e-08
-2.003969479e-08
2.031086685e-08
-2.264260507e-08
2.310624387e-08
-2.562472947e-08
2.623402743e-08
-2.905918129e-08
2.97323034e-08
-3.303753047e-08
3.364231206e-08
-3.767543542e-08
3.800736853e-08
-4.312015804e-08
4.287046274e-08
-4.956058525e-08
4.826948738e-08
-5.724052314e-08
5.422828601e-08
-6.647612327e-08
6.074045137e-08
-7.767818403e-08
6.774080739e-08
-9.13794663e-08
7.505647158e-08
-1.08265454e-07
8.232497735e-08
-1.29203089e-07
8.886039049e-08
-1.552533774e-07
9.343806536e-08
-1.876313973e-07
9.390838613e-08
-2.280511027e-07
7.248870516e-08
-2.253663434e-07
1.87194244e-06
2.191688159e-11
-2.174446723e-10
8.791956821e-11
-6.548744188e-10
1.988534312e-10
-1.100765507e-09
3.561490538e-10
-1.560989175e-09
5.618323234e-10
-2.041550066e-09
8.185425727e-10
-2.548681135e-09
1.129557038e-09
-3.08892575e-09
1.498821762e-09
-3.66922605e-09
1.930989227e-09
-4.297021724e-09
2.431463264e-09
-4.980363103e-09
3.00645187e-09
-5.728042904e-09
3.663028474e-09
-6.549752304e-09
4.40920269e-09
-7.456267669e-09
5.254001049e-09
-8.459676997e-09
6.20755862e-09
-9.573657277e-09
7.281222258e-09
-1.081381601e-08
8.48766524e-09
-1.219811633e-08
9.841013283e-09
-1.374740942e-08
1.135697897e-08
-1.548610569e-08
1.305300021e-08
-1.744302528e-08
1.494837244e-08
-1.965248293e-08
1.706435808e-08
-2.21556788e-08
1.942424213e-08
-2.500248735e-08
2.205328314e-08
-2.825376832e-08
2.497846924e-08
-3.198436472e-08
2.822793594e-08
-3.628699386e-08
3.182980055e-08
-4.127729627e-08
3.581001153e-08
-4.710036498e-08
4.018855478e-08
-5.393912419e-08
4.497294561e-08
-6.202490944e-08
5.014728848e-08
-7.165046138e-08
5.565421118e-08
-8.318510112e-08
6.136556927e-08
-9.709081918e-08
6.70359392e-08
-1.139358207e-07
7.223066415e-08
-1.343978019e-07
7.621820227e-08
-1.592409197e-07
7.782155866e-08
-1.892347372e-07
7.502727425e-08
-2.252568188e-07
5.23156463e-08
-2.028421927e-07
1.94659708e-06
2.1046679e-11
-2.384914335e-10
8.44281446e-11
-7.182561216e-10
1.909545372e-10
-1.207292307e-09
3.419961321e-10
-1.712031348e-09
5.394919191e-10
-2.239046579e-09
7.859652981e-10
-2.795155333e-09
1.0845452e-09
-3.387506505e-09
1.438992491e-09
-4.023674196e-09
1.853731766e-09
-4.711761856e-09
2.3338887e-09
-5.460520941e-09
2.885333131e-09
-6.279488308e-09
3.514727878e-09
-7.179148063e-09
4.229583487e-09
-8.171124246e-09
5.038318465e-09
-9.268412743e-09
5.950324385e-09
-1.048566368e-08
6.976035282e-09
-1.183952705e-08
8.126998225e-09
-1.334907912e-08
9.415942109e-09
-1.503635288e-08
1.085683773e-08
-1.692700062e-08
1.246493905e-08
-1.905112561e-08
1.42567883e-08
-2.144433099e-08
1.625015826e-08
-2.414904732e-08
1.846388856e-08
-2.721621594e-08
2.091754818e-08
-3.070742579e-08
2.363081455e-08
-3.469762845e-08
2.662240203e-08
-3.927857823e-08
2.990827119e-08
-4.456316201e-08
3.349870376e-08
-5.06907939e-08
3.739359592e-08
-5.783401231e-08
4.157498455e-08
-6.620629362e-08
4.599532371e-08
-7.607079602e-08
5.055935366e-08
-8.77491258e-08
5.509654223e-08
-1.016280021e-07
5.932015501e-08
-1.181594319e-07
6.276835628e-08
-1.378459909e-07
6.472313915e-08
-1.611957053e-07
6.411093699e-08
-1.886225215e-07
5.92098499e-08
-2.203557301e-07
3.621874903e-08
-1.800829024e-07
2.005573032e-06
2.009302212e-11
-2.585845309e-10
8.060217328e-11
-7.787655078e-10
1.822998368e-10
-1.308990375e-09
3.26491696e-10
-1.856223764e-09
5.150237718e-10
-2.427579304e-09
7.502956274e-10
-3.03042788e-09
1.035278068e-09
-3.672489643e-09
1.373535025e-09
-4.361931867e-09
1.769249412e-09
-5.107477012e-09
2.227252849e-09
-5.918525222e-09
2.753058946e-09
-6.805295347e-09
3.352899731e-09
-7.778989817e-09
4.033764408e-09
-8.851989844e-09
4.803439406e-09
-1.003808849e-08
5.670547535e-09
-1.135277231e-08
6.644584243e-09
-1.281356398e-08
7.735945967e-09
-1.444044079e-08
8.955944359e-09
-1.625635096e-08
1.031679656e-08
-1.828785226e-08
1.183157651e-08
-2.056590477e-08
1.351410459e-08
-2.312685808e-08
1.537874129e-08
-2.601368276e-08
1.7440034e-08
-2.927750702e-08
1.971213816e-08
-3.29795279e-08
2.220789403e-08
-3.719338189e-08
2.49373825e-08
-4.200806402e-08
2.790569388e-08
-4.753147045e-08
3.110951262e-08
-5.389460939e-08
3.45319347e-08
-6.125643065e-08
3.813467932e-08
-6.980903403e-08
4.184651711e-08
-7.978262978e-08
4.554633827e-08
-9.14489426e-08
4.903888485e-08
-1.051205427e-07
5.202096492e-08
-1.211415115e-07
5.403645236e-08
-1.398614666e-07
5.442021315e-08
-1.615794674e-07
5.223927461e-08
-1.864415723e-07
4.608278714e-08
-2.1419924e-07
2.372375542e-08
-1.580000548e-07
2.051974161e-06
1.905978212e-11
-2.77644389e-10
7.645725126e-11
-8.361632231e-10
1.72924867e-10
-1.4054584e-09
3.097000608e-10
-1.99299948e-09
4.885307264e-10
-2.606410528e-09
7.116859616e-10
-3.253583675e-09
9.81970347e-10
-3.942774599e-09
1.302741331e-09
-4.682703472e-09
1.677929244e-09
-5.482665648e-09
2.112059478e-09
-6.352656274e-09
2.610276152e-09
-7.303512922e-09
3.17836639e-09
-8.347080979e-09
3.822783644e-09
-9.496407981e-09
4.550668261e-09
-1.076597387e-08
5.369862034e-09
-1.217196666e-08
6.288912915e-09
-1.373261523e-08
7.317063934e-09
-1.546859192e-08
8.464216993e-09
-1.740350388e-08
9.740859746e-09
-1.956449464e-08
1.115793662e-08
-2.198298109e-08
1.272663769e-08
-2.469555834e-08
1.445806609e-08
-2.774511002e-08
1.636272853e-08
-3.11821679e-08
1.844976634e-08
-3.506656383e-08
2.072580752e-08
-3.946942098e-08
2.319326605e-08
-4.447552033e-08
2.584784265e-08
-5.018604446e-08
2.867487289e-08
-5.672163666e-08
3.164403422e-08
-6.422558854e-08
3.470174678e-08
-7.286674277e-08
3.776041461e-08
-8.284129406e-08
4.068347864e-08
-9.437200335e-08
4.326521469e-08
-1.077022723e-07
4.520450439e-08
-1.230808012e-07
4.607305074e-08
-1.407300025e-07
4.528125536e-08
-1.607876723e-07
4.205384609e-08
-1.83214155e-07
3.526883638e-08
-2.074142272e-07
1.410742274e-08
-1.371618504e-07
2.089462452e-06
1.795105549e-11
-2.955955273e-10
7.2009878e-11
-8.902223083e-10
1.628671966e-10
-1.496316118e-09
2.916891421e-10
-2.121821895e-09
4.601212552e-10
-2.774843105e-09
6.702968003e-10
-3.463759671e-09
9.248477403e-10
-4.197326039e-09
1.226917723e-09
-4.984774042e-09
1.580176407e-09
-5.83592505e-09
1.988834432e-09
-6.761315096e-09
2.457657786e-09
-7.772337125e-09
2.991980518e-09
-8.881404579e-09
3.597713513e-09
-1.010214182e-08
4.281346695e-09
-1.144960784e-08
5.049940742e-09
-1.294056136e-08
5.911102773e-09
-1.459377774e-08
6.872939511e-09
-1.643042889e-08
7.943976043e-09
-1.847454046e-08
9.133026847e-09
-2.075354526e-08
1.044899781e-08
-2.329895164e-08
1.190059087e-08
-2.614715063e-08
1.349586946e-08
-2.934038752e-08
1.524162792e-08
-3.292792489e-08
1.714248371e-08
-3.696741798e-08
1.919957901e-08
-4.152651447e-08
2.140873097e-08
-4.668467031e-08
2.375781593e-08
-5.253512696e-08
2.622309162e-08
-5.918690953e-08
2.876407507e-08
-6.676656891e-08
3.131649108e-08
-7.541915539e-08
3.378273725e-08
-8.530753689e-08
3.601931165e-08
-9.660857535e-08
3.782086059e-08
-1.095038145e-07
3.890110205e-08
-1.241610425e-07
3.887252233e-08
-1.407014139e-07
3.722982015e-08
-1.591449696e-07
3.335093844e-08
-1.793352674e-07
2.637173631e-08
-2.004350141e-07
6.70579812e-09
-1.178679147e-07
2.119793957e-06
1.677113099e-11
-3.123667493e-10
6.727731452e-11
-9.407287602e-10
1.521660805e-10
-1.581205255e-09
2.725298361e-10
-2.242186047e-09
4.299084173e-10
-2.932222066e-09
6.262951629e-10
-3.660146805e-09
8.64144657e-10
-4.435176018e-09
1.146381583e-09
-5.267011569e-09
1.476409604e-09
-6.165953784e-09
1.85811951e-09
-7.143025761e-09
2.295894956e-09
-8.210113339e-09
2.794614392e-09
-9.380124795e-09
3.359646329e-09
-1.066717453e-08
3.996834872e-09
-1.208679715e-08
4.712470753e-09
-1.365619788e-08
5.513241137e-09
-1.539454863e-08
6.406151102e-09
-1.732333915e-08
7.398403828e-09
-1.946679332e-08
8.497224317e-09
-2.185236562e-08
9.709604684e-09
-2.451133162e-08
1.104194166e-08
-2.74794868e-08
1.24995245e-08
-3.079796926e-08
1.408581817e-08
-3.451421719e-08
1.58014653e-08
-3.868306363e-08
1.764290457e-08
-4.336795203e-08
1.960046573e-08
-4.864222951e-08
2.165576143e-08
-5.459042019e-08
2.377814647e-08
-6.130929185e-08
2.591996566e-08
-6.890838536e-08
2.801027475e-08
-7.750946148e-08
2.994673415e-08
-8.72439928e-08
3.158549767e-08
-9.824733695e-08
3.272928213e-08
-1.106475921e-07
3.311452074e-08
-1.245462808e-07
3.240023283e-08
-1.399871188e-07
3.016409871e-08
-1.569088343e-07
2.591868007e-08
-1.750898441e-07
1.900722905e-08
-1.935235436e-07
8.709750328e-10
-1.001552953e-07
2.14480531e-06
1.552445152e-11
-3.278912959e-10
6.227742616e-11
-9.874819864e-10
1.408621288e-10
-1.659790277e-09
2.522953897e-10
-2.353619621e-09
3.980088887e-10
-3.077935878e-09
5.798530952e-10
-3.841991376e-09
8.001020636e-10
-4.655425481e-09
1.061458335e-09
-5.528368454e-09
1.367056829e-09
-6.471552952e-09
1.72046664e-09
-7.496436248e-09
2.125689055e-09
-8.615336408e-09
2.587149483e-09
-9.841585885e-09
3.109680847e-09
-1.118970656e-08
3.698494042e-09
-1.2675611e-08
4.359130891e-09
-1.431683528e-08
5.09739188e-09
-1.613281004e-08
5.919230436e-09
-1.814517795e-08
6.830601293e-09
-2.037816426e-08
7.83724594e-09
-2.285901008e-08
8.944393683e-09
-2.561847888e-08
1.015634927e-08
-2.869144151e-08
1.147592703e-08
-3.211754592e-08
1.290368014e-08
-3.594196902e-08
1.443685578e-08
-4.021623789e-08
1.606798863e-08
-4.499908312e-08
1.778301636e-08
-5.035725518e-08
1.95587768e-08
-5.636617817e-08
2.135971895e-08
-6.311023138e-08
2.313364664e-08
-7.068231052e-08
2.480632351e-08
-7.918213559e-08
2.627484313e-08
-8.871250848e-08
2.739985476e-08
-9.937234688e-08
2.799717437e-08
-1.112449051e-07
2.783000314e-08
-1.243791088e-07
2.660454157e-08
-1.387616514e-07
2.39739832e-08
-1.542782741e-07
1.956073467e-08
-1.706765915e-07
1.285691907e-08
-1.868197007e-07
-3.624057132e-09
-8.416616114e-08
2.165848895e-06
1.421557795e-11
-3.421069643e-10
5.70285455e-11
-1.030295161e-09
1.289969676e-10
-1.731758944e-09
2.310607999e-10
-2.455683684e-09
3.645419489e-10
-3.211417292e-09
5.311461878e-10
-4.008595976e-09
7.329653221e-10
-4.857245106e-09
9.724784473e-10
-5.767882167e-09
1.252551365e-09
-6.751626452e-09
1.576432641e-09
-7.820318081e-09
1.947744746e-09
-8.986649031e-09
2.370467335e-09
-1.026430899e-08
2.848910133e-09
-1.166814985e-08
3.387670534e-09
-1.321437185e-08
3.991571197e-09
-1.492073632e-08
4.665569552e-09
-1.680680869e-08
5.414629981e-09
-1.889423853e-08
6.243546919e-09
-2.120708116e-08
7.156701541e-09
-2.377216436e-08
8.157730598e-09
-2.661950731e-08
9.24908084e-09
-2.978279084e-08
1.043141092e-08
-3.329987494e-08
1.170279577e-08
-3.721335265e-08
1.305767263e-08
-4.157111332e-08
1.44854569e-08
-4.642686551e-08
1.596873695e-08
-5.184053313e-08
1.748094584e-08
-5.787838469e-08
1.898339686e-08
-6.461267987e-08
2.042158725e-08
-7.212049836e-08
2.172071244e-08
-8.048125814e-08
2.278044636e-08
-8.977223799e-08
2.346925307e-08
-1.00061152e-07
2.36189429e-08
-1.113945891e-07
2.302077704e-08
-1.23780942e-07
2.14256603e-08
-1.371665299e-07
1.855239814e-08
-1.514050091e-07
1.410978302e-08
-1.662339723e-07
7.690448706e-09
-1.80400332e-07
-7.066429155e-09
-6.996358845e-08
2.18388087e-06
1.284915672e-11
-3.549561969e-10
5.154933418e-11
-1.068995481e-09
1.166129307e-10
-1.796822698e-09
2.089022746e-10
-2.547973187e-09
3.296285853e-10
-3.332143827e-09
4.803521869e-10
-4.159319923e-09
6.629821986e-10
-5.039875559e-09
8.797746644e-10
-5.98467512e-09
1.133327982e-09
-7.005180227e-09
1.426574051e-09
-8.113564568e-09
1.762763315e-09
-9.322838689e-09
2.145440973e-09
-1.064698702e-08
2.578410791e-09
-1.210111999e-08
3.065682309e-09
-1.370164362e-08
3.611395779e-09
-1.546644998e-08
4.219717509e-09
-1.741513055e-08
4.894695351e-09
-1.956921637e-08
5.640062813e-09
-2.195244838e-08
6.458976039e-09
-2.459107705e-08
7.353662372e-09
-2.751419287e-08
8.324955873e-09
-3.075408343e-08
9.371687273e-09
-3.434660531e-08
1.04898875e-08
-3.833155165e-08
1.167175569e-08
-4.275298002e-08
1.290433413e-08
-4.765944201e-08
1.416782435e-08
-5.310402129e-08
1.543347711e-08
-5.914403522e-08
1.666099101e-08
-6.584019123e-08
1.779539064e-08
-7.325489517e-08
1.876341366e-08
-8.144927859e-08
1.946956508e-08
-9.04783848e-08
1.979220062e-08
-1.00383786e-07
1.958041588e-08
-1.111827993e-07
1.865296749e-08
-1.228534921e-07
1.680138558e-08
-1.353149437e-07
1.380024288e-08
-1.484038626e-07
9.427348101e-09
-1.618610735e-07
3.356077098e-09
-1.743290202e-07
-9.791655745e-09
-5.742300295e-08
2.199651683e-06
1.142988576e-11
-3.663861351e-10
4.585865058e-11
-1.103424318e-09
1.037527909e-10
-1.854716912e-09
1.85896687e-10
-2.630117188e-09
2.933906668e-10
-3.439637992e-09
4.276497296e-10
-4.293579281e-09
5.904010669e-10
-5.202627237e-09
7.836795154e-10
-6.177953914e-09
1.009819633e-09
-7.231320661e-09
1.27144274e-09
-8.375187973e-09
1.571436937e-09
-9.622833182e-09
1.912927455e-09
-1.098847779e-08
2.299233399e-09
-1.248742611e-08
2.733806732e-09
-1.413621704e-08
3.220147781e-09
-1.595279107e-08
3.761689978e-09
-1.795667272e-08
4.361644047e-09
-2.016917027e-08
5.022789586e-09
-2.261359348e-08
5.747200433e-09
-2.531548721e-08
6.535883917e-09
-2.83028755e-08
7.38831086e-09
-3.160650953e-08
8.301810027e-09
-3.526010349e-08
9.270790916e-09
-3.930053129e-08
1.028575788e-08
-4.376794548e-08
1.133207106e-08
-4.870575331e-08
1.23884107e-08
-5.416035892e-08
1.342490737e-08
-6.018052971e-08
1.440091431e-08
-6.681619554e-08
1.526243915e-08
-7.411641685e-08
1.593932755e-08
-8.212616459e-08
1.634241706e-08
-9.088146984e-08
1.636105811e-08
-1.004024256e-07
1.586177074e-08
-1.106835074e-07
1.468910473e-08
-1.216808237e-07
1.267044183e-08
-1.332962765e-07
9.626978552e-09
-1.453603947e-07
5.391642299e-09
-1.576257334e-07
-2.919343792e-10
-1.686453972e-07
-1.202040823e-08
-4.634693778e-08
2.213447559e-06
9.962492204e-12
-3.763486528e-10
3.997545971e-11
-1.133437299e-09
9.045950374e-11
-1.90520097e-09
1.621211353e-10
-2.701778889e-09
2.559501916e-10
-3.53346719e-09
3.732172062e-10
-4.410846506e-09
5.154692209e-10
-5.344879459e-09
6.845229731e-10
-6.347007853e-09
8.824542764e-10
-7.429252164e-09
1.111581857e-09
-8.604315772e-09
1.374443399e-09
-9.885694953e-09
1.673761314e-09
-1.128779586e-08
2.012394361e-09
-1.282605923e-08
2.393270848e-09
-1.451709353e-08
2.819297517e-09
-1.637881769e-08
3.293237632e-09
-1.843061267e-08
3.817548413e-09
-2.06934807e-08
4.394166907e-09
-2.319021137e-08
5.024230615e-09
-2.594555016e-08
5.70771723e-09
-2.898636124e-08
6.442981051e-09
-3.234177253e-08
7.226164802e-09
-3.604328627e-08
8.050458377e-09
-4.012482362e-08
8.905175553e-09
-4.462266122e-08
9.774619565e-09
-4.957519557e-08
1.063670963e-08
-5.502244699e-08
1.146135732e-08
-6.100517513e-08
1.220860006e-08
-6.756343565e-08
1.282654511e-08
-7.473435854e-08
1.324924611e-08
-8.254886348e-08
1.339477137e-08
-9.102699098e-08
1.316384781e-08
-1.001715004e-07
1.243978701e-08
-1.099594424e-07
1.10905832e-08
-1.203316165e-07
8.974533439e-09
-1.311802226e-07
5.951120726e-09
-1.423369773e-07
1.896114321e-09
-1.535707239e-07
-3.388729705e-09
-1.633605034e-07
-1.390828204e-08
-3.651931258e-08
2.225686238e-06
8.451688988e-12
-3.848003433e-10
3.391871126e-11
-1.158904301e-09
7.677595952e-11
-1.948058204e-09
1.376525298e-10
-2.762655507e-09
2.174286274e-10
-3.61324338e-09
3.172318363e-10
-4.510649816e-09
4.384316261e-10
-5.466079318e-09
5.82630786e-10
-6.491207065e-09
7.516527084e-10
-7.5982742e-09
9.475229089e-10
-8.80018614e-09
1.172442247e-09
-1.011061447e-08
1.428749488e-09
-1.15441032e-08
1.718869521e-09
-1.311617928e-08
2.045243228e-09
-1.484346719e-08
2.410232669e-09
-1.674380703e-08
2.81599611e-09
-1.883637585e-08
3.26432305e-09
-2.114180717e-08
3.756420218e-09
-2.368230782e-08
4.292634493e-09
-2.648176369e-08
4.872100763e-09
-2.956582669e-08
5.492294792e-09
-3.29619658e-08
6.148473384e-09
-3.669946396e-08
6.832980542e-09
-4.080932962e-08
7.534398804e-09
-4.532407819e-08
8.23652852e-09
-5.02773237e-08
8.917181717e-09
-5.57030982e-08
9.546798048e-09
-6.163478914e-08
1.008691259e-08
-6.810354777e-08
1.048855248e-08
-7.513599522e-08
1.069070108e-08
-8.275101029e-08
1.061909301e-08
-9.095537919e-08
1.018569923e-08
-9.97381045e-08
9.289508683e-09
-1.090632478e-07
7.819333525e-09
-1.188614373e-07
5.659631073e-09
-1.290205166e-07
2.700715274e-09
-1.393780574e-07
-1.148782082e-09
-1.497212242e-07
-6.041302324e-09
-1.584679317e-07
-1.552067897e-08
-2.776646436e-08
2.236512635e-06
6.90220568e-12
-3.917025358e-10
2.770731551e-11
-1.179709379e-09
6.274487998e-11
-1.983095752e-09
1.12567314e-10
-2.812477968e-09
1.779464198e-10
-3.678622522e-09
2.598688913e-10
-4.592572281e-09
3.595298168e-10
-5.565740194e-09
4.783229372e-10
-6.610000136e-09
6.178265056e-10
-7.73777781e-09
7.797832161e-10
-8.962142964e-09
9.660718007e-10
-1.029690318e-08
1.178667815e-09
-1.175669927e-08
1.419590082e-09
-1.335710153e-08
1.690829421e-09
-1.511470646e-08
1.994253275e-09
-1.704723073e-08
2.33148054e-09
-1.917360277e-08
2.703718788e-09
-2.151404488e-08
3.111554919e-09
-2.409014321e-08
3.554687325e-09
-2.692489544e-08
4.031587758e-09
-3.004272641e-08
4.539078653e-09
-3.3469456e-08
5.071810478e-09
-3.723219502e-08
5.621622826e-09
-4.135914098e-08
6.176777732e-09
-4.587923194e-08
6.721055176e-09
-5.082159972e-08
7.232712032e-09
-5.621475319e-08
7.683321413e-09
-6.208539632e-08
8.036539156e-09
-6.845676357e-08
8.246889046e-09
-7.53463423e-08
8.258704392e-09
-8.276282413e-08
8.005482524e-09
-9.070215393e-08
7.409963098e-09
-9.914258253e-08
6.385445735e-09
-1.080387268e-07
4.838904644e-09
-1.173148924e-07
2.676602329e-09
-1.268582116e-07
-1.864809087e-10
-1.365149707e-07
-3.818009485e-09
-1.460896939e-07
-8.336286872e-09
-1.539496025e-07
-1.692046115e-08
-1.993926644e-08
2.246135808e-06
5.318674794e-12
-3.970211934e-10
2.135993906e-11
-1.195750615e-09
4.840849537e-11
-2.010144293e-09
8.694100213e-11
-2.851010475e-09
1.376223903e-10
-3.729303881e-09
2.013008776e-10
-4.656250665e-09
2.790008534e-10
-5.64344002e-09
3.719124244e-10
-6.702911568e-09
4.813765267e-10
-7.847241866e-09
6.088640686e-10
-9.089630536e-09
7.559469168e-10
-1.044398607e-08
9.24258341e-10
-1.192501069e-08
1.115439529e-09
-1.354828266e-08
1.331068709e-09
-1.533033552e-08
1.572568317e-09
-1.72887301e-08
1.84108264e-09
-1.944211668e-08
2.137320954e-09
-2.181028266e-08
2.461357361e-09
-2.441417896e-08
2.812376802e-09
-2.727591431e-08
3.188357567e-09
-3.04187066e-08
3.585678328e-09
-3.386677614e-08
3.998638716e-09
-3.764515478e-08
4.418881393e-09
-4.177938284e-08
4.834709058e-09
-4.629505855e-08
5.230295457e-09
-5.12171848e-08
5.584799e-09
-5.656925518e-08
5.87140604e-09
-6.237200146e-08
6.056356677e-09
-6.864171282e-08
6.098049992e-09
-7.538803327e-08
5.946362836e-09
-8.261113556e-08
5.542413409e-09
-9.029820146e-08
4.819036833e-09
-9.841920325e-08
3.70238472e-09
-1.069220719e-07
2.115062556e-09
-1.15727567e-07
-1.862419171e-11
-1.247245232e-07
-2.764525665e-09
-1.337690663e-07
-6.17356532e-09
-1.426806528e-07
-1.033981105e-08
-1.497833054e-07
-1.815137164e-08
-1.291185448e-08
2.25473748e-06
3.705718132e-12
-4.007268973e-10
1.489509771e-11
-1.206939967e-09
3.380857337e-11
-2.029057741e-09
6.084810856e-11
-2.878049966e-09
9.657349722e-11
-3.765029173e-09
1.416971413e-10
-4.701374123e-09
1.970766713e-10
-5.698819311e-09
2.637042453e-10
-6.769538906e-09
3.426915344e-10
-7.926228992e-09
4.352489202e-10
-9.182187832e-09
5.426568445e-10
-1.055139393e-08
6.662270281e-10
-1.20485808e-08
8.072510483e-10
-1.368930654e-08
9.669314864e-10
-1.549001574e-08
1.146293647e-09
-1.746809193e-08
1.346069496e-09
-1.964189208e-08
1.566550047e-09
-2.203076274e-08
1.807397538e-09
-2.465502589e-08
2.067409893e-09