/*--------------------------------*- C++ -*----------------------------------*\
| =========                 |                                                 |
| \\      /  F ield         | OpenFOAM: The Open Source CFD Toolbox           |
|  \\    /   O peration     | Version:  v1912                                 |
|   \\  /    A nd           | Website:  www.openfoam.com                      |
|    \\/     M anipulation  |                                                 |
\*---------------------------------------------------------------------------*/
FoamFile
{
    version     2.0;
    format      ascii;
    class       surfaceScalarField;
    location    "0.2";
    object      phi.gas;
}
// * * * * * * * * * * * * * * * * * * * * * * * * * * * * * * * * * * * * * //

dimensions      [0 3 -1 0 0 0 0];
oriented        oriented;


internalField   nonuniform List<scalar> 
9440
(
2.623103839e-11
7.533736013e-09
1.052490335e-10
2.260088101e-08
2.380628142e-10
3.766702932e-08
4.263782857e-10
5.273147841e-08
6.726234744e-10
6.779351382e-08
9.799749562e-10
8.28523908e-08
1.35239923e-09
9.790732384e-08
1.794705764e-09
1.129574746e-07
2.312613758e-09
1.280019382e-07
2.912835073e-09
1.430397271e-07
3.603176331e-09
1.580697521e-07
4.392664142e-09
1.730907997e-07
5.291698811e-09
1.88101503e-07
6.312243171e-09
2.031003075e-07
7.468055587e-09
2.180854259e-07
8.774979233e-09
2.330547832e-07
1.025130296e-08
2.480059446e-07
1.191821536e-08
2.629360233e-07
1.380037965e-08
2.7784156e-07
1.59266682e-08
2.927183633e-07
1.833111054e-08
3.075612973e-07
2.10541279e-08
3.223639956e-07
2.414416104e-08
3.371184698e-07
2.765984106e-08
3.51814567e-07
3.167292495e-08
3.664392089e-07
3.627232365e-08
3.809753004e-07
4.156972419e-08
3.954001396e-07
4.770758501e-08
4.096830486e-07
5.487075554e-08
4.237817578e-07
6.330378174e-08
4.376367288e-07
7.333743615e-08
4.511619463e-07
8.543078176e-08
4.642294054e-07
1.002406312e-07
4.766417628e-07
1.187420899e-07
4.880813529e-07
1.424512882e-07
4.980083026e-07
1.738744103e-07
5.054356493e-07
2.175927538e-07
5.083237785e-07
2.829383111e-07
5.012939281e-07
4.285295133e-07
4.176817912e-07
1.015479996e-06
2.609881826e-11
6.992235904e-09
1.046878363e-10
2.09760872e-08
2.367884027e-10
3.495792896e-08
4.241096102e-10
4.893636612e-08
6.6908404e-10
6.290996684e-08
9.748938218e-10
7.687723942e-08
1.345511829e-09
9.083661064e-08
1.785754479e-09
1.047864018e-07
2.301348204e-09
1.187248014e-07
2.899011847e-09
1.326498331e-07
3.586558119e-09
1.465593182e-07
4.373017811e-09
1.604508293e-07
5.268792017e-09
1.743216346e-07
6.285839165e-09
1.881686273e-07
7.437905272e-09
2.019882388e-07
8.740809594e-09
2.157763276e-07
1.021280026e-08
2.295280381e-07
1.187500097e-08
2.432376175e-07
1.375197548e-08
2.568981772e-07
1.58724475e-08
2.705013789e-07
1.827022709e-08
2.840370161e-07
2.098541405e-08
2.974924507e-07
2.406598002e-08
3.108518456e-07
2.756986935e-08
3.240951031e-07
3.15678294e-08
3.37196377e-07
3.614727314e-08
3.5012195e-07
4.141763723e-08
3.62827151e-07
4.751794573e-08
3.752517853e-07
5.462769925e-08
3.873131995e-07
6.298290051e-08
3.988954749e-07
7.290024077e-08
4.098320748e-07
8.481464097e-08
4.198769973e-07
9.933939125e-08
4.286548763e-07
1.173658086e-07
4.35570583e-07
1.402339472e-07
4.396365233e-07
1.700285531e-07
4.39123012e-07
2.099830586e-07
4.308480128e-07
2.629888551e-07
4.094719385e-07
3.218758844e-07
3.046293466e-07
1.327539999e-06
2.589668599e-11
6.997015055e-09
1.038822095e-10
2.099013003e-08
2.349632343e-10
3.498023605e-08
4.208347049e-10
4.896524563e-08
6.639073037e-10
6.294301679e-08
9.673334499e-10
7.691131831e-08
1.335047541e-09
9.086779758e-08
1.771817412e-09
1.048099452e-07
2.283308994e-09
1.187350544e-07
2.87616629e-09
1.326401741e-07
3.558109662e-09
1.465220528e-07
4.338055888e-09
1.603770707e-07
5.226264925e-09
1.742011567e-07
6.234519783e-09
1.879896858e-07
7.376347469e-09
2.017373505e-07
8.667291968e-09
2.154379983e-07
1.012525307e-08
2.290844246e-07
1.177091009e-08
2.426681049e-07
1.36282553e-08
2.561788474e-07
1.572527046e-08
2.696043352e-07
1.80947931e-08
2.829295193e-07
2.077563428e-08
2.961358036e-07
2.3814037e-08
3.091999392e-07
2.726559731e-08
3.220924992e-07
3.119782474e-08
3.347757547e-07
3.569359479e-08
3.472006605e-07
4.085586762e-08
3.593025103e-07
4.681422708e-08
3.709945513e-07
5.373407822e-08
3.821583982e-07
6.182977859e-08
3.926293026e-07
7.138367047e-08
4.021729222e-07
8.277399217e-08
4.104476331e-07
9.651598319e-08
4.1694152e-07
1.133213789e-07
4.20863776e-07
1.34177724e-07
4.20952634e-07
1.604226394e-07
4.151323583e-07
1.936906094e-07
3.999272362e-07
2.346642142e-07
3.700432479e-07
2.526007258e-07
2.689172932e-07
1.614799604e-06
2.558529757e-11
6.96975466e-09
1.026360814e-10
2.090805589e-08
2.321434854e-10
3.484236395e-08
4.157790471e-10
4.87699074e-08
6.559196881e-10
6.268784441e-08
9.556725132e-10
7.659321578e-08
1.318913492e-09
9.048290271e-08
1.750336833e-09
1.043535803e-07
2.255516917e-09
1.182016646e-07
2.84098471e-09
1.320232513e-07
3.514321296e-09
1.458140424e-07
4.284271846e-09
1.595692578e-07
5.160884401e-09
1.732835278e-07
6.155679192e-09
1.869507597e-07
7.281855847e-09
2.00563972e-07
8.554547853e-09
2.141150843e-07
9.991136821e-09
2.275946509e-07
1.161164276e-08
2.409915169e-07
1.343921209e-08
2.542923733e-07
1.5500732e-08
2.674811735e-07
1.782760928e-08
2.805383623e-07
2.045676539e-08
2.934398447e-07
2.343191853e-08
3.061555946e-07
2.680524824e-08
3.186477482e-07
3.063957575e-08
3.308679648e-07
3.501124339e-08
3.427537171e-07
4.001394679e-08
3.542229964e-07
4.576387296e-08
3.651666258e-07
5.240662269e-08
3.754369005e-07
6.012653637e-08
3.848304649e-07
6.915915083e-08
3.930619801e-07
7.980736029e-08
3.997227836e-07
9.246081415e-08
4.042147492e-07
1.076143355e-07
4.056429156e-07
1.258700378e-07
4.026402945e-07
1.47881162e-07
3.930850312e-07
1.741536004e-07
3.736525605e-07
2.006352745e-07
3.390812062e-07
1.9627053e-07
2.530758218e-07
1.850768123e-06
2.517325334e-11
6.944835983e-09
1.009840984e-10
2.083301164e-08
2.28404963e-10
3.471622806e-08
4.090765605e-10
4.859104257e-08
6.45331305e-10
6.245392695e-08
9.402166818e-10
7.630120911e-08
1.297531877e-09
9.012902114e-08
1.721874486e-09
1.039332425e-07
2.218698843e-09
1.177094355e-07
2.794387848e-09
1.314527705e-07
3.456340364e-09
1.451579369e-07
4.213077347e-09
1.588190362e-07
5.074370393e-09
1.724294523e-07
6.051397493e-09
1.859816906e-07
7.156932663e-09
1.994671785e-07
8.405576714e-09
2.128760149e-07
9.814040168e-09
2.261966509e-07
1.140149136e-08
2.394154815e-07
1.31899871e-08
2.525163183e-07
1.520500844e-08
2.654797009e-07
1.747613069e-08
2.782819925e-07
2.003786582e-08
2.90894177e-07
2.293072714e-08
3.03280245e-07
2.620258097e-08
3.153950034e-07
2.991036709e-08
3.271810669e-07
3.412229435e-08
3.385646774e-07
3.892063207e-08
3.49449816e-07
4.440523536e-08
3.597097879e-07
5.069791436e-08
3.69175029e-07
5.794763223e-08
3.776151703e-07
6.633614757e-08
3.847122944e-07
7.608274501e-08
3.90020567e-07
8.74443444e-08
3.929048422e-07
1.007019289e-07
3.924472472e-07
1.161130117e-07
3.873065382e-07
1.337899244e-07
3.755109844e-07
1.534249599e-07
3.541619904e-07
1.672671546e-07
3.18720345e-07
1.463297537e-07
2.546980657e-07
2.041376647e-06
2.466160115e-11
6.920311699e-09
9.893186277e-11
2.075915707e-08
2.237606525e-10
3.459209917e-08
4.007509055e-10
4.841503984e-08
6.321803628e-10
6.222378122e-08
9.210233122e-10
7.601395676e-08
1.27098479e-09
8.978097044e-08
1.686544036e-09
1.035199302e-07
2.173008551e-09
1.172255731e-07
2.736580336e-09
1.308921781e-07
3.384436051e-09
1.445134631e-07
4.124823699e-09
1.58082462e-07
4.967179041e-09
1.715913749e-07
5.922265266e-09
1.85031384e-07
7.002341626e-09
1.98392426e-07
8.221366413e-09
2.116629061e-07
9.595242939e-09
2.248293368e-07
1.114211839e-08
2.378758765e-07
1.288274775e-08
2.507837375e-07
1.484093885e-08
2.635304168e-07
1.704409731e-08
2.760886917e-07
1.952389556e-08
2.884252937e-07
2.231709263e-08
3.004991444e-07
2.546653778e-08
3.122589827e-07
2.902238727e-08
3.236401438e-07
3.3043562e-08
3.345601425e-07
3.759944169e-08
3.449125499e-07
4.277173342e-08
3.545584105e-07
4.865630556e-08
3.633140945e-07
5.536446036e-08
3.709339422e-07
6.302246025e-08
3.770853001e-07
7.176676265e-08
3.813125081e-07
8.172971699e-08
3.829851629e-07
9.300536186e-08
3.812248638e-07
1.055758526e-07
3.748044366e-07
1.19164206e-07
3.620156095e-07
1.329469751e-07
3.405107141e-07
1.431969294e-07
3.067094827e-07
1.102107698e-07
2.658482291e-07
2.192487439e-06
2.405252647e-11
6.896401055e-09
9.648854063e-11
2.068715121e-08
2.182315581e-10
3.447107989e-08
3.908401914e-10
4.824345193e-08
6.165280131e-10
6.199941947e-08
8.981834695e-10
7.573394321e-08
1.239401281e-09
8.944172338e-08
1.644522217e-09
1.031171247e-07
2.118682236e-09
1.167540916e-07
2.667872377e-09
1.303460512e-07
3.299010722e-09
1.438857975e-07
4.02002836e-09
1.573653547e-07
4.839972074e-09
1.707758111e-07
5.769125916e-09
1.84107116e-07
6.819156216e-09
1.973478286e-07
8.003283599e-09
2.104848053e-07
9.336487867e-09
2.235028051e-07
1.083575246e-08
2.363839899e-07
1.252035533e-08
2.491072851e-07
1.441221515e-08
2.616475569e-07
1.65363014e-08
2.739745428e-07
1.892111843e-08
2.860514531e-07
2.159926776e-08
2.978331281e-07
2.460809044e-08
3.092635883e-07
2.799037115e-08
3.202727516e-07
3.179505974e-08
3.307720026e-07
3.607790139e-08
3.406481635e-07
4.090174951e-08
3.497552343e-07
4.63361166e-08
3.579030185e-07
5.245509751e-08
3.64841414e-07
5.93320285e-08
3.702387437e-07
6.702785024e-08
3.736520996e-07
7.556767002e-08
3.744875091e-07
8.489589636e-08
3.719483224e-07
9.479364419e-08
3.649725292e-07
1.047315142e-07
3.521657507e-07
1.136102028e-07
3.317537977e-07
1.158808311e-07
3.01061054e-07
7.60494317e-08
2.834351927e-07
2.311751764e-06
2.334864601e-11
6.873191275e-09
9.366478355e-11
2.061725684e-08
2.118420363e-10
3.435361208e-08
3.793886277e-10
4.807690581e-08
5.98445216e-10
6.178166255e-08
8.71802784e-10
7.546219478e-08
1.202930974e-09
8.911252654e-08
1.59601377e-09
1.027263108e-07
2.055993297e-09
1.162967368e-07
2.588622707e-09
1.29816423e-07
3.20052922e-09
1.432772929e-07
3.899288433e-09
1.566704252e-07
4.69351201e-09
1.699858762e-07
5.592949782e-09
1.832124612e-07
6.608609225e-09
1.963374862e-07
7.752894445e-09
2.09346416e-07
9.039767328e-09
2.22222457e-07
1.048493453e-08
2.349460331e-07
1.210606176e-08
2.474941181e-07
1.392301774e-08
2.59839384e-07
1.59581458e-08
2.719491037e-07
1.823656051e-08
2.837837289e-07
2.078645375e-08
2.952950371e-07
2.363938332e-08
3.064237028e-07
2.683048593e-08
3.170960888e-07
3.039851334e-08
3.272199967e-07
3.438550108e-08
3.366790074e-07
3.88357342e-08
3.453249302e-07
4.379341938e-08
3.529677328e-07
4.929802937e-08
3.59362176e-07
5.537554249e-08
3.641902752e-07
6.202256975e-08
3.670388076e-07
6.917839285e-08
3.67371643e-07
7.667698043e-08
3.644983022e-07
8.41666754e-08
3.575438281e-07
9.097860524e-08
3.454333053e-07
9.591477466e-08
3.269260977e-07
9.253523613e-08
3.002638114e-07
4.950174164e-08
3.042847824e-07
2.405858026e-06
2.255296379e-11
6.850774307e-09
9.04727311e-11
2.054975075e-08
2.046198113e-10
3.424016062e-08
3.664465127e-10
4.791606001e-08
5.780126537e-10
6.157137055e-08
8.420012673e-10
7.519978357e-08
1.161743664e-09
8.879467725e-08
1.541250746e-09
1.023490275e-07
1.985251122e-09
1.158553083e-07
2.49923659e-09
1.293053779e-07
3.089515695e-09
1.426903457e-07
3.763275798e-09
1.56000415e-07
4.528654865e-09
1.692246952e-07
5.394823333e-09
1.823509728e-07
6.372077001e-09
1.95365433e-07
7.471941898e-09
2.082523146e-07
8.707290686e-09
2.209934827e-07
1.009247109e-08
2.335678919e-07
1.164344307e-08
2.459509107e-07
1.337792065e-08
2.581134651e-07
1.531550817e-08
2.700209468e-07
1.747781534e-08
2.816318133e-07
1.988851939e-08
2.928957881e-07
2.257332569e-08
3.037515347e-07
2.555973627e-08
3.141236411e-07
2.887648502e-08
3.239187048e-07
3.255239853e-08
3.330202515e-07
3.661428385e-08
3.412821624e-07
4.108319453e-08
3.485202337e-07
4.596801783e-08
3.545015045e-07
5.125468313e-08
3.589311143e-07
5.68883387e-08
3.614368817e-07
6.27444301e-08
3.615527788e-07
6.858275794e-08
3.587045904e-07
7.397629263e-08
3.522051493e-07
7.820421942e-08
3.412745706e-07
8.010455719e-08
3.251163039e-07
7.280489916e-08
3.028057858e-07
2.839759494e-08
3.265066351e-07
2.480412875e-06
2.166882515e-11
6.829238296e-09
8.692587425e-11
2.048489821e-08
1.965956704e-10
3.413117084e-08
3.520696614e-10
4.776154486e-08
5.55319782e-10
6.136936586e-08
8.089118283e-10
7.49477333e-08
1.116027151e-09
8.84894121e-08
1.480489414e-09
1.019867382e-07
1.906796828e-09
1.154315137e-07
2.400160015e-09
1.288148867e-07
2.966545732e-09
1.421272136e-07
3.612726407e-09
1.553578951e-07
4.346335738e-09
1.684951825e-07
5.175929896e-09
1.81525944e-07
6.111053672e-09
1.944353796e-07
7.162311209e-09
2.072066733e-07
8.341438041e-09
2.198205632e-07
9.661371752e-09
2.322548074e-07
1.113631431e-08
2.444835162e-07
1.278177588e-08
2.564763144e-07
1.461458317e-08
2.681972853e-07
1.665282598e-08
2.796036335e-07
1.891569869e-08
2.906439893e-07
2.142316993e-08
3.01256257e-07
2.419537163e-08
3.113648797e-07
2.725154042e-08
3.208773736e-07
3.060824722e-08
3.296799621e-07
3.427650092e-08
3.376321321e-07
3.825708445e-08
3.445599673e-07
4.253314733e-08
3.502482296e-07
4.705857671e-08
3.544314486e-07
5.174000689e-08
3.567848882e-07
5.640943815e-08
3.569174291e-07
6.078348758e-08
3.54370615e-07
6.440455548e-08
3.486320196e-07
6.655922197e-08
3.391780106e-07
6.617681117e-08
3.255691805e-07
5.625413393e-08
3.075355051e-07
1.152615037e-08
3.490986545e-07
2.539530844e-06
2.069987552e-11
6.808667773e-09
8.303891568e-11
2.042295356e-08
1.878031462e-10
3.402706944e-08
3.363188225e-10
4.761396377e-08
5.304638461e-10
6.117643475e-08
7.72678768e-10
7.470702105e-08
1.065985023e-09
8.81979089e-08
1.414007122e-09
1.016408334e-07
1.820998906e-09
1.150269696e-07
2.291873727e-09
1.283468089e-07
2.832238243e-09
1.415900167e-07
3.448429482e-09
1.547452668e-07
4.147554265e-09
1.678000437e-07
4.937530058e-09
1.807404081e-07
5.827124939e-09
1.935507132e-07
6.82599489e-09
2.062132588e-07
7.944713294e-09
2.187078701e-07
9.194786468e-09
2.310113769e-07
1.058864564e-08
2.430969701e-07
1.213960001e-08
2.549334026e-07
1.386172863e-08
2.664839951e-07
1.576967713e-08
2.77705394e-07
1.787830783e-08
2.885460229e-07
2.020212559e-08
2.989441553e-07
2.275436137e-08
3.088255235e-07
2.554553604e-08
3.181003724e-07
2.858124214e-08
3.266598793e-07
3.185874596e-08
3.343718911e-07
3.536182848e-08
3.410760229e-07
3.905303144e-08
3.465783405e-07
4.286212382e-08
3.506462327e-07
4.666921012e-08
3.5300475e-07
5.028046358e-08
3.533368609e-07
5.339420051e-08
3.512921211e-07
5.555540506e-08
3.465116009e-07
5.6098168e-08
3.386823667e-07
5.408299154e-08
3.276375876e-07
4.248454082e-08
3.13597499e-07
-1.627095487e-09
3.712154289e-07
2.586647498e-06
1.965002968e-11
6.789143359e-09
7.882762895e-11
2.036415929e-08
1.782781836e-10
3.392826301e-08
3.192590495e-10
4.747389114e-08
5.035488611e-10
6.099332462e-08
7.334562038e-10
7.447857388e-08
1.011834375e-09
8.792128251e-08
1.342099067e-09
1.013126254e-07
1.728248695e-09
1.146431971e-07
2.174886999e-09
1.279028861e-07
2.687247083e-09
1.410807313e-07
3.271216216e-09
1.541647549e-07
3.933359678e-09
1.671417663e-07
4.680941921e-09
1.799971302e-07
5.521941746e-09
1.927144887e-07
6.465057695e-09
2.052754253e-07
7.519697805e-09
2.176590597e-07
8.695944135e-09
2.298415517e-07
1.000448076e-08
2.41795495e-07
1.145646577e-08
2.534891738e-07
1.306332135e-08
2.648856504e-07
1.483640272e-08
2.759416456e-07
1.678649044e-08
2.866061651e-07
1.892302318e-08
2.968188332e-07
2.125295338e-08
3.065078804e-07
2.377904932e-08
3.155877496e-07
2.649740097e-08
3.239563147e-07
2.939377377e-08
3.314917708e-07
3.243831985e-08
3.380493757e-07
3.557798264e-08
3.434584437e-07
3.872572525e-08
3.475203913e-07
4.174553879e-08
3.500092977e-07
4.443210732e-08
3.50677494e-07
4.648422052e-08
3.492704097e-07
4.747220909e-08
3.455574804e-07
4.680193723e-08
3.393896646e-07
4.368628283e-08
3.307916791e-07
3.11331018e-08
3.203316103e-07
-1.167775194e-08
3.921780189e-07
2.623908493e-06
1.852343128e-11
6.770741548e-09
7.430870527e-11
2.030874542e-08
1.680587887e-10
3.383513692e-08
3.009590439e-10
4.734187076e-08
4.746845424e-10
6.082074192e-08
6.914064537e-10
7.426326634e-08
9.538034528e-10
8.766058202e-08
1.26507499e-09
1.010033452e-07
1.628955858e-09
1.142816173e-07
2.049731507e-09
1.274847386e-07
2.532252694e-09
1.406011851e-07
3.081948577e-09
1.536184029e-07
3.704835888e-09
1.665226168e-07
4.40752153e-09
1.79298604e-07
5.197194721e-09
1.919294273e-07
6.081603009e-09
2.04396115e-07
7.069005936e-09
2.166772784e-07
8.168093997e-09
2.287486497e-07
9.387860171e-09
2.405825241e-07
1.073740216e-08
2.521470856e-07
1.222562713e-08
2.634055919e-07
1.386081724e-08
2.743153935e-07
1.564999915e-08
2.848267581e-07
1.759803521e-08
2.9488148e-07
1.970632527e-08
3.044112607e-07
2.19709547e-08
3.133358666e-07
2.43800758e-08
3.215611155e-07
2.691022475e-08
3.289768319e-07
2.952118632e-08
3.354550388e-07
3.214891966e-08
3.408488932e-07
3.469597013e-08
3.449932381e-07
3.701878981e-08
3.477082462e-07
3.891156995e-08
3.488084882e-07
4.008669813e-08
3.481210536e-07
4.015360106e-08
3.455180934e-07
3.86004222e-08
3.409711332e-07
3.479170358e-08
3.346270374e-07
2.179172994e-08
3.27279757e-07
-1.943316071e-08
4.116274038e-07
2.654623558e-06
1.732441942e-11
6.753534516e-09
6.94996106e-11
2.025692889e-08
1.57184678e-10
3.374805436e-08
2.814905279e-10
4.721841453e-08
4.439852512e-10
6.065935059e-08
6.466984472e-10
7.406191853e-08
8.921293357e-10
8.741678855e-08
1.183255879e-09
1.007141403e-07
1.523543832e-09
1.139435494e-07
1.916955143e-09
1.270938624e-07
2.367953901e-09
1.401530552e-07
2.88150851e-09
1.531080719e-07
3.463087232e-09
1.659446398e-07
4.118643923e-09
1.786470533e-07
4.854589292e-09
1.911979209e-07
5.677740687e-09
2.035778672e-07
6.595243765e-09
2.157651779e-07
7.614452371e-09
2.277353802e-07
8.742752144e-09
2.394607407e-07
9.987305276e-09
2.509096704e-07
1.135468709e-08
2.620460175e-07
1.285037258e-08
2.72828236e-07
1.447801806e-08
2.832084164e-07
1.623845964e-08
2.931311767e-07
1.812832834e-08
3.025324287e-07
2.013813838e-08
3.113380592e-07
2.224966911e-08
3.194626251e-07
2.443240957e-08
3.268082445e-07
2.663877886e-08
3.332640106e-07
2.879780396e-08
3.387064695e-07
3.080693265e-08
3.430020279e-07
3.252177656e-08
3.4601265e-07
3.374393099e-08
3.47606849e-07
3.420764494e-08
3.476788445e-07
3.3567926e-08
3.46179718e-07
3.139527132e-08
3.431648174e-07
2.718984004e-08
3.388501427e-07
1.407184065e-08
3.34176067e-07
-2.548958334e-08
4.294899308e-07
2.6795285e-06
1.605749e-11
6.737589964e-09
6.441842429e-11
2.020891312e-08
1.456969421e-10
3.366735561e-08
2.609276025e-10
4.710400139e-08
4.115690163e-10
6.050977072e-08
5.995062157e-10
7.38752947e-08
8.270557712e-10
8.719081375e-08
1.096970907e-09
1.004460729e-07
1.412445524e-09
1.136302092e-07
1.777116136e-09
1.267316286e-07
2.195060052e-09
1.397378681e-07
2.670787422e-09
1.526354411e-07
3.209224787e-09
1.654096609e-07
3.81568555e-09
1.780444371e-07
4.495822945e-09
1.905220411e-07
5.255557476e-09
2.028228325e-07
6.100971016e-09
2.149249381e-07
7.03815448e-09
2.268038784e-07
8.072992471e-09
2.384321293e-07
9.210863137e-09
2.497786104e-07
1.045622393e-08
2.608080932e-07
1.181204298e-08
2.714805227e-07
1.32790254e-08
2.817502547e-07
1.485456268e-08
2.915652222e-07
1.653131976e-08
3.008660649e-07
1.829533992e-08
3.095852905e-07
2.012352617e-08
3.176465938e-07
2.198033008e-08
3.249645396e-07
2.381345751e-08
3.314449551e-07
2.55484165e-08
3.36986565e-07
2.70817916e-08
3.414846627e-07
2.827330673e-08
3.448379958e-07
2.893718771e-08
3.469604703e-07
2.8833938e-08
3.477997795e-07
2.766534557e-08
3.473653984e-07
2.507759297e-08
3.45767691e-07
2.068252228e-08
3.432560571e-07
7.624814647e-09
3.408730212e-07
-3.020196235e-08
4.456755399e-07
2.700830344e-06
1.472725875e-11
6.722970997e-09
5.90836981e-11
2.016488765e-08
1.336376998e-10
3.359335741e-08
2.393461439e-10
4.699907663e-08
3.775565122e-10
6.037257777e-08
5.50007406e-10
7.370410233e-08
7.58830995e-10
8.698349895e-08
1.006554407e-09
1.002001196e-07
1.296099261e-09
1.133427088e-07
1.630777753e-09
1.263992836e-07
2.014283927e-09
1.393570012e-07
2.450676972e-09
1.522020117e-07
2.944354117e-09
1.649192923e-07
3.500008089e-09
1.774924593e-07
4.122564504e-09
1.899035533e-07
4.81709084e-09
2.02132794e-07
5.5886681e-09
2.141582971e-07
6.442212872e-09
2.259557491e-07
7.382232549e-09
2.374980372e-07
8.412492349e-09
2.487548247e-07
9.535567039e-09
2.596920749e-07
1.07522389e-08
2.702715256e-07
1.206069774e-08
2.80450126e-07
1.345547929e-08
2.901794621e-07
1.49260719e-08
2.99405219e-07
1.645509769e-08
3.080667659e-07
1.801596399e-08
3.160970048e-07
1.95698715e-08
3.234226953e-07
2.106207326e-08
3.299655915e-07
2.241732417e-08
3.356448835e-07
2.353456122e-08
3.403816321e-07
2.428105162e-08
3.441061564e-07
2.448672374e-08
3.46769581e-07
2.393989618e-08
3.483609559e-07
2.238701651e-08
3.489313203e-07
1.954035225e-08
3.486247224e-07
1.509948193e-08
3.477023819e-07
2.208371292e-09
3.47291492e-07
-3.378911318e-08
4.600176902e-07
2.718966882e-06
1.333842744e-11
6.709736035e-09
5.351431549e-11
2.012502787e-08
1.21049787e-10
3.352635263e-08
2.168232602e-10
4.690405131e-08
3.420701597e-10
6.024830201e-08
4.983818775e-10
7.354899171e-08
6.877057169e-10
8.679561492e-08
9.123430721e-10
9.997717126e-08
1.174944941e-09
1.130820574e-07
1.478503066e-09
1.260979512e-07
1.826335019e-09
1.390116858e-07
2.222060375e-09
1.518091112e-07
2.669564372e-09
1.644749408e-07
3.172944844e-09
1.7699258e-07
3.736436753e-09
1.89343934e-07
4.364306828e-09
2.015091927e-07
5.06070817e-09
2.134665869e-07
5.829483057e-09
2.251921159e-07
6.673897835e-09
2.366592435e-07
7.59628914e-09
2.478385637e-07
8.597595997e-09
2.586974376e-07
9.676744898e-09
2.69199615e-07
1.082984765e-08
2.793048591e-07
1.204916034e-08
2.889686085e-07
1.332174683e-08
2.981417355e-07
1.462777919e-08
3.067704935e-07
1.59384042e-08
3.147967973e-07
1.721311137e-08
3.221590471e-07
1.83965634e-08
3.287937957e-07
1.941491577e-08
3.346386977e-07
2.017177519e-08
3.396373051e-07
2.054413007e-08
3.437464463e-07
2.037904923e-08
3.469470417e-07
1.949230153e-08
3.492592024e-07
1.767113968e-08
3.50762204e-07
1.468418335e-08
3.516183097e-07
1.030085148e-08
3.520870194e-07
-2.338659522e-09
3.53367081e-07
-3.66422779e-08
4.726950617e-07
2.73491769e-06
1.189574956e-11
6.697938752e-09
4.772935854e-11
2.008949484e-08
1.079764849e-10
3.346660998e-08
1.934367452e-10
4.681930213e-08
3.052332942e-10
6.013742833e-08
4.448104251e-10
7.341055586e-08
6.139313063e-10
8.662786206e-08
8.146734212e-10
9.977803375e-08
1.049420697e-09
1.128491627e-07
1.320850525e-09
1.25828635e-07
1.631913737e-09
1.387030117e-07
1.985804873e-09
1.514579011e-07
2.385918608e-09
1.640778178e-07
2.83578836e-09
1.765460303e-07
3.339001226e-09
1.888443915e-07
3.899081887e-09
2.009531551e-07
4.519335536e-09
2.128507729e-07
5.202637958e-09
2.245136748e-07
5.951158289e-09
2.359160315e-07
6.765995472e-09
2.470295073e-07
7.646704257e-09
2.578230069e-07
8.590684036e-09
2.682624343e-07
9.592394803e-09
2.783104896e-07
1.064236128e-08
2.879265418e-07
1.172592074e-08
2.970666437e-07
1.282167034e-08
3.056837781e-07
1.38995722e-08
3.137284798e-07
1.491869359e-08
3.211500222e-07
1.58245912e-08
3.278984362e-07
1.654642861e-08
3.339277204e-07
1.699404392e-08
3.392006925e-07
1.705533581e-08
3.436960092e-07
1.659476812e-08
3.474179071e-07
1.545400133e-08
3.504090861e-07
1.345647218e-08
3.527668003e-07
1.0418147e-08
3.546604451e-07
6.1647354e-09
3.563388086e-07
-6.161883515e-09
3.590544269e-07
-3.895583318e-08
4.838864688e-07
2.748806149e-06
1.04040067e-11
6.687628044e-09
4.174801743e-11
2.005843526e-08
9.446126689e-11
3.341437393e-08
1.692646367e-10
4.674517127e-08
2.671694076e-10
6.004039632e-08
3.894736249e-10
7.328933091e-08
5.377580769e-10
8.648087123e-08
7.138794403e-10
9.960342953e-08
9.199596736e-10
1.126448338e-07
1.158369849e-09
1.255922223e-07
1.431706069e-09
1.384319328e-07
1.742755093e-09
1.511493844e-07
2.094445531e-09
1.637289514e-07
2.489780568e-09
1.761538288e-07
2.931746177e-09
1.884058883e-07
3.423188214e-09
2.004655248e-07
3.966648327e-09
2.123114955e-07
4.564148092e-09
2.239207508e-07
5.216906712e-09
2.352682637e-07
5.924977562e-09
2.463268639e-07
6.686780144e-09
2.570670886e-07
7.498505715e-09
2.674570682e-07
8.353368324e-09
2.77462476e-07
9.240671011e-09
2.870465863e-07
1.014465707e-08
2.961705023e-07
1.104311929e-08
3.047936456e-07
1.190575023e-08
3.128746327e-07
1.269224392e-08
3.203727113e-07
1.33501949e-08
3.272499771e-07
1.381291269e-08
3.334746609e-07
1.399741668e-08
3.390258128e-07
1.380296655e-08
3.438997422e-07
1.311087377e-08
3.481185251e-07
1.178643795e-08
3.517406898e-07
9.684433819e-09
3.548738102e-07
6.659897575e-09
3.576867635e-07
2.582705119e-09
3.604127832e-07
-9.404214379e-09
3.643436446e-07
-4.092219011e-08
4.93817235e-07
2.761148316e-06
8.867965101e-12
6.678848042e-09
3.558947139e-11
2.00319814e-08
8.054754893e-11
3.336986476e-08
1.443848007e-10
4.668196663e-08
2.28001481e-10
5.995760059e-08
3.325508984e-10
7.318579671e-08
4.594340249e-10
8.635520484e-08
6.102908904e-10
9.945399944e-08
7.869878438e-10
1.124697834e-07
9.915990831e-10
1.253894887e-07
1.226379675e-09
1.381992736e-07
1.493727908e-09
1.508844155e-07
1.796133025e-09
1.634291988e-07
2.136104528e-09
1.758167995e-07
2.51607661e-09
1.880291657e-07
2.938282088e-09
2.00046895e-07
3.40458565e-09
2.118491129e-07
3.916267971e-09
2.234133543e-07
4.473745487e-09
2.347154557e-07
5.076214763e-09
2.45729466e-07
5.721200548e-09
2.564275925e-07
6.403989362e-09
2.667802008e-07
7.116927345e-09
2.767559e-07
7.84856093e-09
2.863217569e-07
8.582601168e-09
2.954437001e-07
9.296700394e-09
3.040871966e-07
9.961042527e-09
3.122183111e-07
1.053678006e-08
3.198052962e-07
1.09743904e-08
3.268208885e-07
1.121208363e-08
3.332455325e-07
1.117453791e-08
3.390717559e-07
1.07722937e-08
3.443099083e-07
9.902454477e-09
3.489954056e-07
8.451388699e-09
3.53197362e-07
6.300490581e-09
3.570281628e-07
3.336461261e-09
3.606512761e-07
-5.368272259e-10
3.642820057e-07
-1.21771806e-08
3.692412499e-07
-4.259474684e-08
5.026561078e-07
2.772072798e-06
7.292407123e-12
6.671638091e-09
2.927286405e-11
2.001025125e-08
6.627859095e-11
3.333327873e-08
1.188746491e-10
4.662996204e-08
1.878514845e-10
5.988939134e-08
2.742197229e-10
7.31003777e-08
3.792037101e-10
8.62513584e-08
5.042317541e-10
9.933030511e-08
6.509219292e-10
1.123246321e-07
8.210620174e-10
1.252211031e-07
1.016580862e-09
1.380057367e-07
1.239508874e-09
1.506637099e-07
1.491923994e-09
1.631792607e-07
1.775879769e-09
1.755355904e-07
2.093309163e-09
1.877147688e-07
2.445898226e-09
1.996976412e-07
2.834921367e-09
2.114637449e-07
3.261030028e-09
2.229912379e-07
3.723981588e-09
2.342568497e-07
4.222297481e-09
2.452358644e-07
4.752835566e-09
2.559021502e-07
5.310260615e-09
2.662282625e-07
5.886396816e-09
2.761856456e-07
6.469450574e-09
2.857449766e-07
7.043090812e-09
2.948767101e-07
7.585391279e-09
3.035518945e-07
8.067645584e-09
3.117433537e-07
8.453104571e-09
3.194273551e-07
8.695726747e-09
3.265858959e-07
8.739070261e-09
3.332097684e-07
8.515600905e-09
3.39302543e-07
7.946701341e-09
3.448855666e-07
6.943936163e-09
3.50003989e-07
5.412110756e-09
3.547335697e-07
3.254882824e-09
3.591877259e-07
3.844312209e-10
3.635214813e-07
-3.270873496e-09
3.679327989e-07
-1.457314061e-08
3.737641036e-07
-4.404300972e-08
5.105529278e-07
2.781740944e-06
5.682019508e-12
6.666032861e-09
2.281710012e-11
1.999334862e-08
5.169717065e-11
3.330478834e-08
9.281067133e-11
4.658939777e-08
1.46839767e-10
5.983607504e-08
2.146548075e-10
7.303344411e-08
2.973072129e-10
8.616976223e-08
3.960190109e-10
9.923283152e-08
5.12167886e-10
1.122099117e-07
6.47266315e-10
1.250876331e-07
8.029323046e-10
1.3785191e-07
9.808494979e-10
1.504878548e-07
1.18271324e-09
1.629796947e-07
1.410158979e-09
1.753106921e-07
1.664668574e-09
1.874630709e-07
1.947446752e-09
1.994179544e-07
2.259262219e-09
2.111553156e-07
2.600245438e-09
2.226539508e-07
2.969631428e-09
2.338914839e-07
3.365438227e-09
2.448444145e-07
3.784069068e-09
2.554882233e-07
4.219825968e-09
2.657975626e-07
4.664323123e-09
2.757465589e-07
5.105793819e-09
2.853092624e-07
5.528286346e-09
2.944603008e-07
5.910761778e-09
3.03175795e-07
6.226115086e-09
3.114346148e-07
6.440173818e-09
3.192200671e-07
6.510774264e-09
3.265221108e-07
6.387037902e-09
3.33340204e-07
6.009099895e-09
3.396868581e-07
5.308535688e-09
3.455919076e-07
4.209930012e-09
3.511074233e-07
2.633993928e-09
3.56312951e-07
5.028592313e-10
3.613204295e-07
-2.25144829e-09
3.662751648e-07
-5.683301416e-09
3.713600159e-07
-1.6663583e-08
3.779342826e-07
-4.532104679e-08
5.176385751e-07
2.790389063e-06
4.041481336e-12
6.662062365e-09
1.624093838e-11
1.998136335e-08
3.684560705e-11
3.328454265e-08
6.626836049e-11
4.656048103e-08
1.05084812e-10
5.979791528e-08
1.540276989e-10
7.298531329e-08
2.139794753e-10
8.611078346e-08
2.859616118e-10
9.916198995e-08
3.711195122e-10
1.121260695e-07
4.707016894e-10
1.249895507e-07
5.86030887e-10
1.377382746e-07
7.184649152e-10
1.503573194e-07
8.693448341e-10
1.628309304e-07
1.039925328e-09
1.751424567e-07
1.231285555e-09
1.872742986e-07
1.444211903e-09
1.992078725e-07
1.679048392e-09
2.109235937e-07
1.935506693e-09
2.224008907e-07
2.212427562e-09
2.336182572e-07
2.507484671e-09
2.44553358e-07
2.816821186e-09
2.551832019e-07
3.134610076e-09
2.654844071e-07
3.452531757e-09
2.754335864e-07
3.759164986e-09
2.85007884e-07
4.039293617e-09
2.941857102e-07
4.273147319e-09
3.029477251e-07
4.435605555e-09
3.112781304e-07
4.495416668e-09
3.191663367e-07
4.414536635e-09
3.266090685e-07
4.147696773e-09
3.336129645e-07
3.642426622e-09
3.401976974e-07
2.839735009e-09
3.463995628e-07
1.675785837e-09
3.522754148e-07
8.495644119e-11
3.579065404e-07
-1.995533483e-09
3.634020031e-07
-4.618700434e-09
3.688975384e-07
-7.826379503e-09
3.745631435e-07
-1.850155718e-08
3.817726816e-07
-4.64511078e-08
5.24015348e-07
2.798106398e-06
2.375393205e-12
6.659751927e-09
9.56287759e-12
1.997437127e-08
2.176561249e-11
3.327266751e-08
3.932202906e-11
4.654338651e-08
6.270302089e-11
5.97751338e-08
9.250650777e-11
7.295625116e-08
1.294500433e-10