/*--------------------------------*- C++ -*----------------------------------*\
| =========                 |                                                 |
| \\      /  F ield         | OpenFOAM: The Open Source CFD Toolbox           |
|  \\    /   O peration     | Version:  v1912                                 |
|   \\  /    A nd           | Website:  www.openfoam.com                      |
|    \\/     M anipulation  |                                                 |
\*---------------------------------------------------------------------------*/
FoamFile
{
    version     2.0;
    format      ascii;
    class       volScalarField;
    location    "0.2";
    object      T.gas;
}
// * * * * * * * * * * * * * * * * * * * * * * * * * * * * * * * * * * * * * //

dimensions      [0 0 0 1 0 0 0];


internalField   nonuniform List<scalar> 
4800
(
111.5389861
111.5389861
111.5389861
111.5389861
111.5389861
111.5389861
111.5389861
111.5389861
111.5389861
111.5389861
111.5389861
111.538986
111.538986
111.538986
111.538986
111.538986
111.538986
111.5389859
111.5389859
111.5389859
111.5389858
111.5389858
111.5389858
111.5389857
111.5389857
111.5389857
111.5389856
111.5389856
111.5389855
111.5389854
111.5389854
111.5389853
111.5389852
111.5389851
111.538985
111.5389857
111.538956
111.5395421
111.5336934
111.5383061
111.5389756
111.5389756
111.5389756
111.5389756
111.5389756
111.5389756
111.5389756
111.5389755
111.5389755
111.5389755
111.5389755
111.5389755
111.5389755
111.5389755
111.5389754
111.5389754
111.5389754
111.5389754
111.5389753
111.5389753
111.5389753
111.5389752
111.5389752
111.5389752
111.5389751
111.5389751
111.538975
111.538975
111.5389749
111.5389748
111.5389747
111.5389746
111.5389745
111.5389744
111.5389742
111.5389744
111.5389612
111.5392395
111.5379804
111.5385183
111.538965
111.538965
111.538965
111.538965
111.538965
111.538965
111.538965
111.538965
111.538965
111.538965
111.538965
111.5389649
111.5389649
111.5389649
111.5389649
111.5389649
111.5389648
111.5389648
111.5389648
111.5389648
111.5389647
111.5389647
111.5389646
111.5389646
111.5389645
111.5389645
111.5389644
111.5389644
111.5389643
111.5389642
111.5389641
111.538964
111.5389639
111.5389637
111.5389635
111.5389634
111.5389566
111.5391148
111.5378701
111.5387769
111.5389545
111.5389545
111.5389545
111.5389545
111.5389545
111.5389545
111.5389545
111.5389544
111.5389544
111.5389544
111.5389544
111.5389544
111.5389544
111.5389544
111.5389543
111.5389543
111.5389543
111.5389543
111.5389542
111.5389542
111.5389542
111.5389541
111.5389541
111.538954
111.538954
111.5389539
111.5389539
111.5389538
111.5389537
111.5389536
111.5389535
111.5389534
111.5389532
111.5389531
111.5389528
111.5389526
111.5389484
111.539059
111.5371785
111.5386912
111.5389439
111.5389439
111.5389439
111.5389439
111.5389439
111.5389439
111.5389439
111.5389439
111.5389439
111.5389439
111.5389439
111.5389438
111.5389438
111.5389438
111.5389438
111.5389438
111.5389437
111.5389437
111.5389437
111.5389436
111.5389436
111.5389436
111.5389435
111.5389435
111.5389434
111.5389433
111.5389433
111.5389432
111.5389431
111.538943
111.5389429
111.5389428
111.5389426
111.5389424
111.5389422
111.5389419
111.538939
111.5390292
111.5365078
111.5383202
111.5389334
111.5389334
111.5389334
111.5389334
111.5389334
111.5389334
111.5389334
111.5389334
111.5389333
111.5389333
111.5389333
111.5389333
111.5389333
111.5389333
111.5389332
111.5389332
111.5389332
111.5389332
111.5389331
111.5389331
111.538933
111.538933
111.538933
111.5389329
111.5389328
111.5389328
111.5389327
111.5389326
111.5389325
111.5389324
111.5389323
111.5389322
111.538932
111.5389318
111.5389316
111.5389313
111.5389294
111.5390059
111.5365984
111.5379246
111.5389229
111.5389229
111.5389228
111.5389228
111.5389228
111.5389228
111.5389228
111.5389228
111.5389228
111.5389228
111.5389228
111.5389228
111.5389227
111.5389227
111.5389227
111.5389227
111.5389226
111.5389226
111.5389226
111.5389225
111.5389225
111.5389224
111.5389224
111.5389223
111.5389223
111.5389222
111.5389221
111.5389221
111.538922
111.5389219
111.5389217
111.5389216
111.5389214
111.5389212
111.538921
111.5389207
111.5389197
111.5389808
111.5364221
111.5376779
111.5389123
111.5389123
111.5389123
111.5389123
111.5389123
111.5389123
111.5389123
111.5389123
111.5389123
111.5389122
111.5389122
111.5389122
111.5389122
111.5389122
111.5389121
111.5389121
111.5389121
111.5389121
111.538912
111.538912
111.5389119
111.5389119
111.5389118
111.5389118
111.5389117
111.5389117
111.5389116
111.5389115
111.5389114
111.5389113
111.5389112
111.538911
111.5389109
111.5389107
111.5389104
111.5389101
111.53891
111.5389523
111.5363002
111.5375445
111.5389018
111.5389018
111.5389018
111.5389018
111.5389018
111.5389018
111.5389017
111.5389017
111.5389017
111.5389017
111.5389017
111.5389017
111.5389017
111.5389016
111.5389016
111.5389016
111.5389015
111.5389015
111.5389015
111.5389014
111.5389014
111.5389013
111.5389013
111.5389012
111.5389012
111.5389011
111.538901
111.5389009
111.5389008
111.5389007
111.5389006
111.5389005
111.5389003
111.5389001
111.5388999
111.5388996
111.5389001
111.5389204
111.5362615
111.5374749
111.5388912
111.5388912
111.5388912
111.5388912
111.5388912
111.5388912
111.5388912
111.5388912
111.5388912
111.5388912
111.5388911
111.5388911
111.5388911
111.5388911
111.5388911
111.538891
111.538891
111.538891
111.5388909
111.5388909
111.5388909
111.5388908
111.5388908
111.5388907
111.5388906
111.5388906
111.5388905
111.5388904
111.5388903
111.5388902
111.5388901
111.5388899
111.5388898
111.5388896
111.5388894
111.5388891
111.5388901
111.5388859
111.5362486
111.5373897
111.5388807
111.5388807
111.5388807
111.5388807
111.5388807
111.5388807
111.5388807
111.5388807
111.5388806
111.5388806
111.5388806
111.5388806
111.5388806
111.5388805
111.5388805
111.5388805
111.5388805
111.5388804
111.5388804
111.5388804
111.5388803
111.5388803
111.5388802
111.5388802
111.5388801
111.53888
111.5388799
111.5388799
111.5388798
111.5388797
111.5388795
111.5388794
111.5388792
111.5388791
111.5388789
111.5388787
111.5388801
111.5388501
111.5363145
111.5368966
111.5388702
111.5388702
111.5388702
111.5388702
111.5388701
111.5388701
111.5388701
111.5388701
111.5388701
111.5388701
111.5388701
111.5388701
111.53887
111.53887
111.53887
111.53887
111.5388699
111.5388699
111.5388699
111.5388698
111.5388698
111.5388697
111.5388697
111.5388696
111.5388696
111.5388695
111.5388694
111.5388693
111.5388692
111.5388691
111.538869
111.5388689
111.5388687
111.5388686
111.5388684
111.5388682
111.5388701
111.5388381
111.5363949
111.5372045
111.5388596
111.5388596
111.5388596
111.5388596
111.5388596
111.5388596
111.5388596
111.5388596
111.5388596
111.5388596
111.5388595
111.5388595
111.5388595
111.5388595
111.5388595
111.5388594
111.5388594
111.5388594
111.5388593
111.5388593
111.5388592
111.5388592
111.5388591
111.5388591
111.538859
111.5388589
111.5388589
111.5388588
111.5388587
111.5388586
111.5388585
111.5388584
111.5388582
111.5388581
111.5388579
111.5388578
111.5388601
111.5387967
111.5364961
111.5369334
111.5388491
111.5388491
111.5388491
111.5388491
111.5388491
111.5388491
111.5388491
111.5388491
111.538849
111.538849
111.538849
111.538849
111.538849
111.5388489
111.5388489
111.5388489
111.5388489
111.5388488
111.5388488
111.5388488
111.5388487
111.5388487
111.5388486
111.5388485
111.5388485
111.5388484
111.5388483
111.5388483
111.5388482
111.5388481
111.538848
111.5388479
111.5388477
111.5388476
111.5388475
111.5388473
111.5388502
111.5387387
111.5365963
111.5370166
111.5388386
111.5388386
111.5388386
111.5388386
111.5388386
111.5388385
111.5388385
111.5388385
111.5388385
111.5388385
111.5388385
111.5388385
111.5388384
111.5388384
111.5388384
111.5388384
111.5388383
111.5388383
111.5388383
111.5388382
111.5388382
111.5388381
111.5388381
111.538838
111.538838
111.5388379
111.5388378
111.5388377
111.5388377
111.5388376
111.5388375
111.5388374
111.5388372
111.5388371
111.538837
111.5388369
111.5388403
111.5386845
111.5364777
111.5369546
111.538828
111.538828
111.538828
111.538828
111.538828
111.538828
111.538828
111.538828
111.538828
111.538828
111.5388279
111.5388279
111.5388279
111.5388279
111.5388279
111.5388278
111.5388278
111.5388278
111.5388277
111.5388277
111.5388277
111.5388276
111.5388276
111.5388275
111.5388274
111.5388274
111.5388273
111.5388272
111.5388271
111.5388271
111.538827
111.5388269
111.5388268
111.5388266
111.5388265
111.5388265
111.5388305
111.5386335
111.5363461
111.5369519
111.5388175
111.5388175
111.5388175
111.5388175
111.5388175
111.5388175
111.5388175
111.5388175
111.5388175
111.5388174
111.5388174
111.5388174
111.5388174
111.5388174
111.5388173
111.5388173
111.5388173
111.5388172
111.5388172
111.5388172
111.5388171
111.5388171
111.538817
111.538817
111.5388169
111.5388169
111.5388168
111.5388167
111.5388166
111.5388166
111.5388165
111.5388164
111.5388163
111.5388162
111.5388161
111.5388161
111.5388207
111.5385852
111.5362551
111.5369881
111.538807
111.538807
111.538807
111.538807
111.538807
111.538807
111.5388069
111.5388069
111.5388069
111.5388069
111.5388069
111.5388069
111.5388069
111.5388068
111.5388068
111.5388068
111.5388068
111.5388067
111.5388067
111.5388066
111.5388066
111.5388066
111.5388065
111.5388065
111.5388064
111.5388063
111.5388063
111.5388062
111.5388061
111.5388061
111.538806
111.5388059
111.5388058
111.5388057
111.5388056
111.5388057
111.538811
111.5385354
111.5361892
111.5369442
111.5387965
111.5387965
111.5387965
111.5387964
111.5387964
111.5387964
111.5387964
111.5387964
111.5387964
111.5387964
111.5387964
111.5387964
111.5387963
111.5387963
111.5387963
111.5387963
111.5387962
111.5387962
111.5387962
111.5387961
111.5387961
111.538796
111.538796
111.5387959
111.5387959
111.5387958
111.5387958
111.5387957
111.5387956
111.5387956
111.5387955
111.5387954
111.5387953
111.5387952
111.5387951
111.5387952
111.5388014
111.5384651
111.5361357
111.5369788
111.5387859
111.5387859
111.5387859
111.5387859
111.5387859
111.5387859
111.5387859
111.5387859
111.5387859
111.5387859
111.5387858
111.5387858
111.5387858
111.5387858
111.5387858
111.5387857
111.5387857
111.5387857
111.5387856
111.5387856
111.5387856
111.5387855
111.5387855
111.5387854
111.5387854
111.5387853
111.5387853
111.5387852
111.5387851
111.5387851
111.538785
111.5387849
111.5387848
111.5387848
111.5387847
111.5387848
111.5387918
111.5383999
111.5360924
111.5369516
111.5387754
111.5387754
111.5387754
111.5387754
111.5387754
111.5387754
111.5387754
111.5387754
111.5387754
111.5387753
111.5387753
111.5387753
111.5387753
111.5387753
111.5387752
111.5387752
111.5387752
111.5387752
111.5387751
111.5387751
111.5387751
111.538775
111.538775
111.5387749
111.5387749
111.5387748
111.5387748
111.5387747
111.5387746
111.5387746
111.5387745
111.5387744
111.5387744
111.5387743
111.5387742
111.5387744
111.5387821
111.5383402
111.5360569
111.5369501
111.5387649
111.5387649
111.5387649
111.5387649
111.5387649
111.5387649
111.5387649
111.5387648
111.5387648
111.5387648
111.5387648
111.5387648
111.5387648
111.5387648
111.5387647
111.5387647
111.5387647
111.5387646
111.5387646
111.5387646
111.5387645
111.5387645
111.5387645
111.5387644
111.5387644
111.5387643
111.5387643
111.5387642
111.5387641
111.5387641
111.538764
111.538764
111.5387639
111.5387638
111.5387638
111.538764
111.5387723
111.5382855
111.5360248
111.5369691
111.5387544
111.5387544
111.5387544
111.5387544
111.5387544
111.5387543
111.5387543
111.5387543
111.5387543
111.5387543
111.5387543
111.5387543
111.5387543
111.5387542
111.5387542
111.5387542
111.5387542
111.5387541
111.5387541
111.5387541
111.538754
111.538754
111.538754
111.5387539
111.5387539
111.5387538
111.5387538
111.5387537
111.5387537
111.5387536
111.5387535
111.5387535
111.5387534
111.5387534
111.5387533
111.5387536
111.5387625
111.5382352
111.5359963
111.536963
111.5387438
111.5387438
111.5387438
111.5387438
111.5387438
111.5387438
111.5387438
111.5387438
111.5387438
111.5387438
111.5387438
111.5387438
111.5387437
111.5387437
111.5387437
111.5387437
111.5387437
111.5387436
111.5387436
111.5387436
111.5387435
111.5387435
111.5387435
111.5387434
111.5387434
111.5387433
111.5387433
111.5387432
111.5387432
111.5387431
111.5387431
111.538743
111.5387429
111.5387429
111.5387428
111.5387432
111.5387526
111.5381887
111.5359715
111.5369573
111.5387333
111.5387333
111.5387333
111.5387333
111.5387333
111.5387333
111.5387333
111.5387333
111.5387333
111.5387333
111.5387333
111.5387332
111.5387332
111.5387332
111.5387332
111.5387332
111.5387331
111.5387331
111.5387331
111.5387331
111.538733
111.538733
111.5387329
111.5387329
111.5387329
111.5387328
111.5387328
111.5387327
111.5387327
111.5387326
111.5387326
111.5387325
111.5387325
111.5387324
111.5387324
111.5387328
111.5387426
111.5381456
111.5359499
111.5369525
111.5387228
111.5387228
111.5387228
111.5387228
111.5387228
111.5387228
111.5387228
111.5387228
111.5387228
111.5387228
111.5387227
111.5387227
111.5387227
111.5387227
111.5387227
111.5387227
111.5387226
111.5387226
111.5387226
111.5387225
111.5387225
111.5387225
111.5387224
111.5387224
111.5387224
111.5387223
111.5387223
111.5387222
111.5387222
111.5387221
111.5387221
111.538722
111.538722
111.538722
111.5387219
111.5387224
111.5387326
111.5381055
111.5359312
111.5369483
111.5387123
111.5387123
111.5387123
111.5387123
111.5387123
111.5387123
111.5387123
111.5387123
111.5387123
111.5387122
111.5387122
111.5387122
111.5387122
111.5387122
111.5387122
111.5387121
111.5387121
111.5387121
111.5387121
111.538712
111.538712
111.538712
111.5387119
111.5387119
111.5387119
111.5387118
111.5387118
111.5387118
111.5387117
111.5387117
111.5387116
111.5387116
111.5387115
111.5387115
111.5387114
111.538712
111.5387225
111.5380679
111.5359147
111.5369447
111.5387018
111.5387018
111.5387018
111.5387018
111.5387018
111.5387018
111.5387018
111.5387018
111.5387017
111.5387017
111.5387017
111.5387017
111.5387017
111.5387017
111.5387017
111.5387016
111.5387016
111.5387016
111.5387016
111.5387015
111.5387015
111.5387015
111.5387015
111.5387014
111.5387014
111.5387013
111.5387013
111.5387013
111.5387012
111.5387012
111.5387011
111.5387011
111.5387011
111.538701
111.538701
111.5387015
111.5387124
111.5380325
111.5359002
111.5369414
111.5386913
111.5386913
111.5386913
111.5386913
111.5386913
111.5386913
111.5386912
111.5386912
111.5386912
111.5386912
111.5386912
111.5386912
111.5386912
111.5386912
111.5386912
111.5386911
111.5386911
111.5386911
111.5386911
111.538691
111.538691
111.538691
111.538691
111.5386909
111.5386909
111.5386909
111.5386908
111.5386908
111.5386907
111.5386907
111.5386907
111.5386906
111.5386906
111.5386906
111.5386905
111.5386911
111.5387023
111.5379989
111.5358873
111.5369386
111.5386808
111.5386808
111.5386808
111.5386808
111.5386807
111.5386807
111.5386807
111.5386807
111.5386807
111.5386807
111.5386807
111.5386807
111.5386807
111.5386807
111.5386806
111.5386806
111.5386806
111.5386806
111.5386806
111.5386805
111.5386805
111.5386805
111.5386805
111.5386804
111.5386804
111.5386804
111.5386803
111.5386803
111.5386803
111.5386802
111.5386802
111.5386802
111.5386801
111.5386801
111.53868
111.5386807
111.5386922
111.5379666
111.5358755
111.536936
111.5386702
111.5386702
111.5386702
111.5386702
111.5386702
111.5386702
111.5386702
111.5386702
111.5386702
111.5386702
111.5386702
111.5386702
111.5386702
111.5386702
111.5386701
111.5386701
111.5386701
111.5386701
111.5386701
111.53867
111.53867
111.53867
111.53867
111.5386699
111.5386699
111.5386699
111.5386698
111.5386698
111.5386698
111.5386697
111.5386697
111.5386697
111.5386696
111.5386696
111.5386696
111.5386702
111.538682
111.5379352
111.5358645
111.5369336
111.5386597
111.5386597
111.5386597
111.5386597
111.5386597
111.5386597
111.5386597
111.5386597
111.5386597
111.5386597
111.5386597
111.5386597
111.5386597
111.5386597
111.5386596
111.5386596
111.5386596
111.5386596
111.5386596
111.5386595
111.5386595
111.5386595
111.5386595
111.5386595
111.5386594
111.5386594
111.5386594
111.5386593
111.5386593
111.5386593
111.5386592
111.5386592
111.5386592
111.5386591
111.5386591
111.5386598
111.5386719
111.5379043
111.5358536
111.5369314
111.5386492
111.5386492
111.5386492
111.5386492
111.5386492
111.5386492
111.5386492
111.5386492
111.5386492
111.5386492
111.5386492
111.5386492
111.5386492
111.5386491
111.5386491
111.5386491
111.5386491
111.5386491
111.5386491
111.5386491
111.538649
111.538649
111.538649
111.538649
111.5386489
111.5386489
111.5386489
111.5386489
111.5386488
111.5386488
111.5386488
111.5386487
111.5386487
111.5386487
111.5386486
111.5386494
111.5386617
111.5378735
111.535842
111.5369293
111.5386387
111.5386387
111.5386387
111.5386387
111.5386387
111.5386387
111.5386387
111.5386387
111.5386387
111.5386387
111.5386387
111.5386387
111.5386387
111.5386386
111.5386386
111.5386386
111.5386386
111.5386386
111.5386386
111.5386386
111.5386385
111.5386385
111.5386385
111.5386385
111.5386384
111.5386384
111.5386384
111.5386384
111.5386383
111.5386383
111.5386383
111.5386383
111.5386382
111.5386382
111.5386382
111.5386389
111.5386516
111.5378419
111.5358278
111.536926
111.5386282
111.5386282
111.5386282
111.5386282
111.5386282
111.5386282
111.5386282
111.5386282
111.5386282
111.5386282
111.5386282
111.5386282
111.5386282
111.5386281
111.5386281
111.5386281
111.5386281
111.5386281
111.5386281
111.5386281
111.538628
111.538628
111.538628
111.538628
111.538628
111.5386279
111.5386279
111.5386279
111.5386279
111.5386278
111.5386278
111.5386278
111.5386278
111.5386277
111.5386277
111.5386285
111.5386414
111.5378083
111.5358156
111.5369069
111.5386177
111.5386177
111.5386177
111.5386177
111.5386177
111.5386177
111.5386177
111.5386177
111.5386177
111.5386177
111.5386177
111.5386177
111.5386177
111.5386176
111.5386176
111.5386176
111.5386176
111.5386176
111.5386176
111.5386176
111.5386176
111.5386175
111.5386175
111.5386175
111.5386175
111.5386175
111.5386174
111.5386174
111.5386174
111.5386174
111.5386173
111.5386173
111.5386173
111.5386173
111.5386172
111.5386181
111.5386313
111.5377723
111.5358071
111.5368946
111.5386072
111.5386072
111.5386072
111.5386072
111.5386072
111.5386072
111.5386072
111.5386072
111.5386072
111.5386072
111.5386072
111.5386072
111.5386072
111.5386071
111.5386071
111.5386071
111.5386071
111.5386071
111.5386071
111.5386071
111.5386071
111.5386071
111.538607
111.538607
111.538607
111.538607
111.538607
111.5386069
111.5386069
111.5386069
111.5386069
111.5386068
111.5386068
111.5386068
111.5386067
111.5386077
111.5386212
111.5377331
111.5357959
111.5369005
111.5385967
111.5385967
111.5385967
111.5385967
111.5385967
111.5385967
111.5385967
111.5385967
111.5385967
111.5385967
111.5385967
111.5385967
111.5385967
111.5385966
111.5385966
111.5385966
111.5385966
111.5385966
111.5385966
111.5385966
111.5385966
111.5385966
111.5385965
111.5385965
111.5385965
111.5385965
111.5385965
111.5385965
111.5385964
111.5385964
111.5385964
111.5385964
111.5385963
111.5385963
111.5385963
111.5385972
111.5386112
111.5376917
111.5357707
111.5369146
111.5385862
111.5385862
111.5385862
111.5385862
111.5385862
111.5385862
111.5385862
111.5385862
111.5385862
111.5385862
111.5385862
111.5385862
111.5385862
111.5385861
111.5385861
111.5385861
111.5385861
111.5385861
111.5385861
111.5385861
111.5385861
111.5385861
111.5385861
111.5385861
111.538586
111.538586
111.538586
111.538586
111.538586
111.5385859
111.5385859
111.5385859
111.5385859
111.5385858
111.5385858
111.5385868
111.5386012
111.5376433
111.5357581
111.5371754
111.5385757
111.5385757
111.5385757
111.5385757
111.5385757
111.5385757
111.5385757
111.5385757
111.5385757
111.5385757
111.5385757
111.5385757
111.5385757
111.5385757
111.5385756
111.5385756
111.5385756
111.5385756
111.5385756
111.5385756
111.5385756
111.5385756
111.5385756
111.5385756
111.5385756
111.5385755
111.5385755
111.5385755
111.5385755
111.5385755
111.5385754
111.5385754
111.5385754
111.5385754
111.5385753
111.5385764
111.5385912
111.5375901
111.5357645
111.536972
111.5385652
111.5385652
111.5385652
111.5385652
111.5385652
111.5385652
111.5385652
111.5385652
111.5385652
111.5385652
111.5385652
111.5385652
111.5385652
111.5385652
111.5385651
111.5385651
111.5385651
111.5385651
111.5385651
111.5385651
111.5385651
111.5385651
111.5385651
111.5385651
111.5385651
111.5385651
111.538565
111.538565
111.538565
111.538565
111.538565
111.5385649
111.5385649
111.5385649
111.5385649
111.538566
111.5385814
111.5375325
111.5357555
111.5365866
111.5385547
111.5385547
111.5385547
111.5385547
111.5385547
111.5385547
111.5385547
111.5385547
111.5385547
111.5385547
111.5385547
111.5385547
111.5385547
111.5385547
111.5385547
111.5385547
111.5385546
111.5385546
111.5385546
111.5385546
111.5385546
111.5385546
111.5385546
111.5385546
111.5385546
111.5385546
111.5385546
111.5385546
111.5385545
111.5385545
111.5385545
111.5385545
111.5385544
111.5385544
111.5385544
111.5385556
111.5385716
111.5374696
111.5357332
111.5370149
111.5385442
111.5385442
111.5385442
111.5385442
111.5385442
111.5385442
111.5385442
111.5385442
111.5385442
111.5385442
111.5385442
111.5385442
111.5385442
111.5385442
111.5385442
111.5385442
111.5385442
111.5385442
111.5385442
111.5385441
111.5385441
111.5385441
111.5385441
111.5385441
111.5385441
111.5385441
111.5385441
111.5385441
111.5385441
111.538544
111.538544
111.538544
111.538544
111.5385439
111.5385439
111.5385453
111.5385619
111.5373988
111.5357371
111.5370965
111.5385337
111.5385337
111.5385337
111.5385337
111.5385337
111.5385337
111.5385337
111.5385337
111.5385337
111.5385337
111.5385337
111.5385337
111.5385337
111.5385337
111.5385337
111.5385337
111.5385337
111.5385337
111.5385337
111.5385337
111.5385337
111.5385337
111.5385337
111.5385336
111.5385336
111.5385336
111.5385336
111.5385336
111.5385336
111.5385336
111.5385336
111.5385335
111.5385335
111.5385335
111.5385334
111.5385349
111.5385523
111.5373246
111.5357466
111.5368724
111.5385231
111.5385231
111.5385231
111.5385231
111.5385232
111.5385232
111.5385232
111.5385232
111.5385232
111.5385232
111.5385232
111.5385232
111.5385232
111.5385232
111.5385232
111.5385232
111.5385232
111.5385232
111.5385232
111.5385232
111.5385232
111.5385232
111.5385232
111.5385232
111.5385232
111.5385232
111.5385232
111.5385231
111.5385231
111.5385231
111.5385231
111.5385231
111.538523
111.538523
111.538523
111.5385246
111.5385428
111.5372509
111.5357577
111.5367972
111.5385126
111.5385126
111.5385126
111.5385126
111.5385126
111.5385126
111.5385126
111.5385127
111.5385127
111.5385127
111.5385127
111.5385127
111.5385127
111.5385127
111.5385127
111.5385127
111.5385127
111.5385127
111.5385127
111.5385127
111.5385127
111.5385127
111.5385127
111.5385127
111.5385127
111.5385127
111.5385127
111.5385127
111.5385127
111.5385127
111.5385126
111.5385126
111.5385126
111.5385125
111.5385125
111.5385143
111.5385334
111.5371758
111.5357814
111.5368376
111.5385021
111.5385021
111.5385021
111.5385021
111.5385021
111.5385021
111.5385021
111.5385021
111.5385021
111.5385022
111.5385022
111.5385022
111.5385022
111.5385022
111.5385022
111.5385022
111.5385022
111.5385022
111.5385022
111.5385022
111.5385022
111.5385022
111.5385022
111.5385022
111.5385022
111.5385022
111.5385022
111.5385022
111.5385022
111.5385022
111.5385022
111.5385021
111.5385021
111.5385021
111.538502
111.5385041
111.5385242
111.5371063
111.5357947
111.5368578
111.5384916
111.5384916
111.5384916
111.5384916
111.5384916
111.5384916
111.5384916
111.5384916
111.5384916
111.5384917
111.5384917
111.5384917
111.5384917
111.5384917
111.5384917
111.5384917
111.5384917
111.5384917
111.5384917
111.5384917
111.5384917
111.5384917
111.5384917
111.5384917
111.5384917
111.5384918
111.5384918
111.5384917
111.5384917
111.5384917
111.5384917
111.5384917
111.5384917
111.5384916
111.5384915
111.5384939
111.538515
111.5370352
111.5358078
111.536845
111.5384811
111.5384811
111.5384811
111.5384811
111.5384811
111.5384811
111.5384811
111.5384811
111.5384811
111.5384811
111.5384812
111.5384812
111.5384812
111.5384812
111.5384812
111.5384812
111.5384812
111.5384812
111.5384812
111.5384812
111.5384812
111.5384812
111.5384813
111.5384813
111.5384813
111.5384813
111.5384813
111.5384813
111.5384813
111.5384813
111.5384813
111.5384812
111.5384812
111.5384811
111.5384811
111.5384837
111.5385059
111.5369564
111.5358148
111.5368442
111.5384706
111.5384706
111.5384706
111.5384706
111.5384706
111.5384706
111.5384706
111.5384706
111.5384706
111.5384706
111.5384707
111.5384707
111.5384707
111.5384707
111.5384707
111.5384707
111.5384707
111.5384707
111.5384707
111.5384707
111.5384708
111.5384708
111.5384708
111.5384708
111.5384708
111.5384708
111.5384708
111.5384708
111.5384708
111.5384708
111.5384708
111.5384708
111.5384708
111.5384707
111.5384706
111.5384737
111.5384971
111.536859
111.5358117
111.5368483
111.5384601
111.5384601
111.5384601
111.5384601
111.5384601
111.5384601
111.5384601
111.5384601
111.5384601
111.5384601
111.5384601
111.5384602
111.5384602
111.5384602
111.5384602
111.5384602
111.5384602
111.5384602
111.5384602
111.5384603
111.5384603
111.5384603
111.5384603
111.5384603
111.5384603
111.5384603
111.5384604
111.5384604
111.5384604
111.5384604
111.5384604
111.5384603
111.5384603
111.5384602
111.5384602
111.5384638
111.5384886
111.536723
111.5357951
111.5368506
111.5384496
111.5384496
111.5384496
111.5384496
111.5384496
111.5384496
111.5384496
111.5384496
111.5384496
111.5384496
111.5384496
111.5384497
111.5384497
111.5384497
111.5384497
111.5384497
111.5384497
111.5384497
111.5384497
111.5384498
111.5384498
111.5384498
111.5384498
111.5384498
111.5384499
111.5384499
111.5384499
111.5384499
111.5384499
111.5384499
111.5384499
111.5384499
111.5384499
111.5384498
111.5384498
111.5384542
111.5384805
111.5365153
111.5357587
111.5368525
111.5384391
111.5384391
111.5384391
111.5384391
111.5384391
111.5384391
111.5384391
111.5384391
111.5384391
111.5384391
111.5384391
111.5384392
111.5384392
111.5384392
111.5384392
111.5384392
111.5384392
111.5384392
111.5384393
111.5384393
111.5384393
111.5384393
111.5384393
111.5384394
111.5384394
111.5384394
111.5384394
111.5384395
111.5384395
111.5384395
111.5384395
111.5384395
111.5384395
111.5384394
111.5384393
111.5384451
111.5384731
111.5361739
111.5356949
111.5368521
111.5384286
111.5384286
111.5384286
111.5384286
111.5384286
111.5384286
111.5384286
111.5384286
111.5384286
111.5384286
111.5384286
111.5384286
111.5384287
111.5384287
111.5384287
111.5384287
111.5384287
111.5384287
111.5384288
111.5384288
111.5384288
111.5384288
111.5384289
111.5384289
111.5384289
111.5384289
111.538429
111.538429
111.538429
111.538429
111.5384291
111.5384291
111.538429
111.538429
111.538429
111.5384367
111.5384664
111.5355796
111.5355988
111.5368479
111.5384181
111.5384181
111.5384181
111.5384181
111.5384181
111.5384181
111.5384181
111.5384181
111.5384181
111.5384181
111.5384181
111.5384181
111.5384182
111.5384182
111.5384182
111.5384182
111.5384182
111.5384182
111.5384183
111.5384183
111.5384183
111.5384184
111.5384184
111.5384184
111.5384184
111.5384185
111.5384185
111.5384186
111.5384186
111.5384186
111.5384186
111.5384187
111.5384186
111.5384186
111.5384187
111.5384301
111.5384592
111.5345231
111.5354756
111.5368354
111.5384076
111.5384076
111.5384076
111.5384076
111.5384076
111.5384076
111.5384076
111.5384076
111.5384076
111.5384076
111.5384076
111.5384076
111.5384076
111.5384077
111.5384077
111.5384077
111.5384077
111.5384078
111.5384078
111.5384078
111.5384078
111.5384079
111.5384079
111.5384079
111.538408
111.538408
111.5384081
111.5384081
111.5384081
111.5384082
111.5384082
111.5384082
111.5384083
111.5384082
111.5384087
111.5384269
111.538443
111.5329024
111.5353531
111.5368177
111.5383971
111.5383971
111.5383971
111.5383971
111.5383971
111.5383971
111.5383971
111.5383971
111.5383971
111.5383971
111.5383971
111.5383971
111.5383971
111.5383972
111.5383972
111.5383972
111.5383972
111.5383973
111.5383973
111.5383973
111.5383973
111.5383974
111.5383974
111.5383975
111.5383975
111.5383975
111.5383976
111.5383976
111.5383977
111.5383978
111.5383978
111.5383979
111.5383979
111.5383978
111.5383992
111.5384313
111.5383749
111.531915
111.5352516
111.5367618
111.5383864
111.5383864
111.5383864
111.5383865
111.5383865
111.5383865
111.5383865
111.5383865
111.5383865
111.5383866
111.5383866
111.5383866
111.5383866
111.5383867
111.5383867
111.5383867
111.5383867
111.5383868
111.5383868
111.5383868
111.5383869
111.5383869
111.5383869
111.538387
111.538387
111.5383871
111.5383871
111.5383872
111.5383873
111.5383873
111.5383874
111.5383875
111.5383875
111.5383874
111.5383918
111.5384528
111.5379504
111.5314355
111.5352085
111.5366787
111.5384272
111.5384257
111.538427
111.538425
111.5384251
111.5384251
111.5384252
111.5384255
111.5384258
111.5384261
111.5384263
111.5384265
111.5384265
111.5384267
111.5384269
111.5384272
111.538427
111.5384271
111.5384275
111.5384279
111.5384283
111.5384281
111.5384283
111.5384287
111.5384291
111.53843
111.5384301
111.5384309
111.538432
111.5384332
111.5384336
111.5384347
111.5384355
111.5384354
111.5384493
111.5385379
111.5218548
111.5259543
111.5356901
111.5370193
111.5390634
111.5390485
111.5390619
111.5390655
111.5390663
111.539067
111.5390696
111.5390738
111.5390784
111.5390823
111.5390848
111.539086
111.5390865
111.5390878
111.53909
111.5390905
111.5390918
111.539093
111.539097
111.539101
111.5391027
111.5391059
111.5391085
111.5391131
111.5391184
111.5391264
111.5391364
111.5391474
111.539161
111.5391752
111.5391935
111.5392106
111.5392227
111.5392231
111.5392217
111.539242
111.539301
111.5399207
111.5405566
111.5404647
111.5896862
111.5778561
111.5756905
111.5745729
111.5737537
111.5730439
111.5723672
111.5716937
111.5709926
111.5702293
111.5693769
111.5684325
111.567406
111.5663166
111.5651814
111.5638727
111.5626379
111.5613255
111.5600124
111.5586665
111.5572157
111.5558841
111.5545495
111.5532607
111.5519835
111.5507196
111.5495733
111.5484639
111.5474105
111.5464072
111.5455084
111.5446815
111.5439685
111.5433876
111.5428196
111.5420884
111.5415608
111.5411585
111.5444813
111.5622005
111.6731333
111.6732565
111.6727248
111.6724529