/*--------------------------------*- C++ -*----------------------------------*\
| =========                 |                                                 |
| \\      /  F ield         | OpenFOAM: The Open Source CFD Toolbox           |
|  \\    /   O peration     | Version:  v1912                                 |
|   \\  /    A nd           | Website:  www.openfoam.com                      |
|    \\/     M anipulation  |                                                 |
\*---------------------------------------------------------------------------*/
FoamFile
{
    version     2.0;
    format      ascii;
    class       volScalarField;
    location    "0.2";
    object      Tf.gasAndLiquid;
}
// * * * * * * * * * * * * * * * * * * * * * * * * * * * * * * * * * * * * * //

dimensions      [0 0 0 1 0 0 0];


internalField   nonuniform List<scalar> 
4800
(
111.5389861
111.5389861
111.5389861
111.5389861
111.5389861
111.5389861
111.5389861
111.5389861
111.5389861
111.5389861
111.5389861
111.538986
111.538986
111.538986
111.538986
111.538986
111.538986
111.5389859
111.5389859
111.5389859
111.5389858
111.5389858
111.5389858
111.5389857
111.5389857
111.5389857
111.5389856
111.5389856
111.5389855
111.5389854
111.5389854
111.5389853
111.5389852
111.5389851
111.538985
111.5389857
111.538956
111.5395421
111.533692
111.538
111.5389756
111.5389756
111.5389756
111.5389756
111.5389756
111.5389756
111.5389756
111.5389755
111.5389755
111.5389755
111.5389755
111.5389755
111.5389755
111.5389755
111.5389754
111.5389754
111.5389754
111.5389754
111.5389753
111.5389753
111.5389753
111.5389752
111.5389752
111.5389752
111.5389751
111.5389751
111.538975
111.538975
111.5389749
111.5389748
111.5389747
111.5389746
111.5389745
111.5389744
111.5389742
111.5389744
111.5389612
111.5392395
111.538
111.538
111.538965
111.538965
111.538965
111.538965
111.538965
111.538965
111.538965
111.538965
111.538965
111.538965
111.538965
111.5389649
111.5389649
111.5389649
111.5389649
111.5389649
111.5389648
111.5389648
111.5389648
111.5389648
111.5389647
111.5389647
111.5389646
111.5389646
111.5389645
111.5389645
111.5389644
111.5389644
111.5389643
111.5389642
111.5389641
111.538964
111.5389639
111.5389637
111.5389635
111.5389634
111.5389566
111.5391148
111.538
111.538
111.5389545
111.5389545
111.5389545
111.5389545
111.5389545
111.5389545
111.5389545
111.5389544
111.5389544
111.5389544
111.5389544
111.5389544
111.5389544
111.5389544
111.5389543
111.5389543
111.5389543
111.5389543
111.5389542
111.5389542
111.5389542
111.5389541
111.5389541
111.538954
111.538954
111.5389539
111.5389539
111.5389538
111.5389537
111.5389536
111.5389535
111.5389534
111.5389532
111.5389531
111.5389528
111.5389526
111.5389484
111.5390591
111.538
111.538
111.5389439
111.5389439
111.5389439
111.5389439
111.5389439
111.5389439
111.5389439
111.5389439
111.5389439
111.5389439
111.5389439
111.5389438
111.5389438
111.5389438
111.5389438
111.5389438
111.5389437
111.5389437
111.5389437
111.5389436
111.5389436
111.5389436
111.5389435
111.5389435
111.5389434
111.5389433
111.5389433
111.5389432
111.5389431
111.538943
111.5389429
111.5389428
111.5389426
111.5389424
111.5389422
111.5389419
111.538939
111.5390293
111.538
111.538
111.5389334
111.5389334
111.5389334
111.5389334
111.5389334
111.5389334
111.5389334
111.5389334
111.5389333
111.5389333
111.5389333
111.5389333
111.5389333
111.5389333
111.5389332
111.5389332
111.5389332
111.5389332
111.5389331
111.5389331
111.538933
111.538933
111.538933
111.5389329
111.5389328
111.5389328
111.5389327
111.5389326
111.5389325
111.5389324
111.5389323
111.5389322
111.538932
111.5389318
111.5389316
111.5389313
111.5389294
111.539006
111.538
111.538
111.5389229
111.5389229
111.5389228
111.5389228
111.5389228
111.5389228
111.5389228
111.5389228
111.5389228
111.5389228
111.5389228
111.5389228
111.5389227
111.5389227
111.5389227
111.5389227
111.5389226
111.5389226
111.5389226
111.5389225
111.5389225
111.5389224
111.5389224
111.5389223
111.5389223
111.5389222
111.5389221
111.5389221
111.538922
111.5389219
111.5389217
111.5389216
111.5389214
111.5389212
111.538921
111.5389207
111.5389197
111.5389809
111.538
111.538
111.5389123
111.5389123
111.5389123
111.5389123
111.5389123
111.5389123
111.5389123
111.5389123
111.5389123
111.5389122
111.5389122
111.5389122
111.5389122
111.5389122
111.5389121
111.5389121
111.5389121
111.5389121
111.538912
111.538912
111.5389119
111.5389119
111.5389118
111.5389118
111.5389117
111.5389117
111.5389116
111.5389115
111.5389114
111.5389113
111.5389112
111.538911
111.5389109
111.5389107
111.5389104
111.5389101
111.53891
111.5389524
111.538
111.538
111.5389018
111.5389018
111.5389018
111.5389018
111.5389018
111.5389018
111.5389017
111.5389017
111.5389017
111.5389017
111.5389017
111.5389017
111.5389017
111.5389016
111.5389016
111.5389016
111.5389015
111.5389015
111.5389015
111.5389014
111.5389014
111.5389013
111.5389013
111.5389012
111.5389012
111.5389011
111.538901
111.5389009
111.5389008
111.5389007
111.5389006
111.5389005
111.5389003
111.5389001
111.5388999
111.5388996
111.5389001
111.5389205
111.538
111.538
111.5388912
111.5388912
111.5388912
111.5388912
111.5388912
111.5388912
111.5388912
111.5388912
111.5388912
111.5388912
111.5388911
111.5388911
111.5388911
111.5388911
111.5388911
111.538891
111.538891
111.538891
111.5388909
111.5388909
111.5388909
111.5388908
111.5388908
111.5388907
111.5388906
111.5388906
111.5388905
111.5388904
111.5388903
111.5388902
111.5388901
111.5388899
111.5388898
111.5388896
111.5388894
111.5388891
111.5388901
111.538886
111.538
111.538
111.5388807
111.5388807
111.5388807
111.5388807
111.5388807
111.5388807
111.5388807
111.5388807
111.5388806
111.5388806
111.5388806
111.5388806
111.5388806
111.5388805
111.5388805
111.5388805
111.5388805
111.5388804
111.5388804
111.5388804
111.5388803
111.5388803
111.5388802
111.5388802
111.5388801
111.53888
111.5388799
111.5388799
111.5388798
111.5388797
111.5388795
111.5388794
111.5388792
111.5388791
111.5388789
111.5388787
111.5388801
111.5388502
111.538
111.538
111.5388702
111.5388702
111.5388702
111.5388702
111.5388701
111.5388701
111.5388701
111.5388701
111.5388701
111.5388701
111.5388701
111.5388701
111.53887
111.53887
111.53887
111.53887
111.5388699
111.5388699
111.5388699
111.5388698
111.5388698
111.5388697
111.5388697
111.5388696
111.5388696
111.5388695
111.5388694
111.5388693
111.5388692
111.5388691
111.538869
111.5388689
111.5388687
111.5388686
111.5388684
111.5388682
111.5388701
111.5388262
111.538
111.538
111.5388596
111.5388596
111.5388596
111.5388596
111.5388596
111.5388596
111.5388596
111.5388596
111.5388596
111.5388596
111.5388595
111.5388595
111.5388595
111.5388595
111.5388595
111.5388594
111.5388594
111.5388594
111.5388593
111.5388593
111.5388592
111.5388592
111.5388591
111.5388591
111.538859
111.5388589
111.5388589
111.5388588
111.5388587
111.5388586
111.5388585
111.5388584
111.5388582
111.5388581
111.5388579
111.5388578
111.5388601
111.5387855
111.538
111.538
111.5388491
111.5388491
111.5388491
111.5388491
111.5388491
111.5388491
111.5388491
111.5388491
111.538849
111.538849
111.538849
111.538849
111.538849
111.5388489
111.5388489
111.5388489
111.5388489
111.5388488
111.5388488
111.5388488
111.5388487
111.5388487
111.5388486
111.5388485
111.5388485
111.5388484
111.5388483
111.5388483
111.5388482
111.5388481
111.538848
111.5388479
111.5388477
111.5388476
111.5388475
111.5388473
111.5388502
111.5387374
111.538
111.538
111.5388386
111.5388386
111.5388386
111.5388386
111.5388386
111.5388385
111.5388385
111.5388385
111.5388385
111.5388385
111.5388385
111.5388385
111.5388384
111.5388384
111.5388384
111.5388384
111.5388383
111.5388383
111.5388383
111.5388382
111.5388382
111.5388381
111.5388381
111.538838
111.538838
111.5388379
111.5388378
111.5388377
111.5388377
111.5388376
111.5388375
111.5388374
111.5388372
111.5388371
111.538837
111.5388369
111.5388403
111.538692
111.538
111.538
111.538828
111.538828
111.538828
111.538828
111.538828
111.538828
111.538828
111.538828
111.538828
111.538828
111.5388279
111.5388279
111.5388279
111.5388279
111.5388279
111.5388278
111.5388278
111.5388278
111.5388277
111.5388277
111.5388277
111.5388276
111.5388276
111.5388275
111.5388274
111.5388274
111.5388273
111.5388272
111.5388271
111.5388271
111.538827
111.5388269
111.5388268
111.5388266
111.5388265
111.5388265
111.5388305
111.5386489
111.538
111.538
111.5388175
111.5388175
111.5388175
111.5388175
111.5388175
111.5388175
111.5388175
111.5388175
111.5388175
111.5388174
111.5388174
111.5388174
111.5388174
111.5388174
111.5388173
111.5388173
111.5388173
111.5388172
111.5388172
111.5388172
111.5388171
111.5388171
111.538817
111.538817
111.5388169
111.5388169
111.5388168
111.5388167
111.5388166
111.5388166
111.5388165
111.5388164
111.5388163
111.5388162
111.5388161
111.5388161
111.5388207
111.538608
111.538
111.538
111.538807
111.538807
111.538807
111.538807
111.538807
111.538807
111.5388069
111.5388069
111.5388069
111.5388069
111.5388069
111.5388069
111.5388069
111.5388068
111.5388068
111.5388068
111.5388068
111.5388067
111.5388067
111.5388066
111.5388066
111.5388066
111.5388065
111.5388065
111.5388064
111.5388063
111.5388063
111.5388062
111.5388061
111.5388061
111.538806
111.5388059
111.5388058
111.5388057
111.5388056
111.5388057
111.538811
111.5385662
111.538
111.538
111.5387965
111.5387965
111.5387965
111.5387964
111.5387964
111.5387964
111.5387964
111.5387964
111.5387964
111.5387964
111.5387964
111.5387964
111.5387963
111.5387963
111.5387963
111.5387963
111.5387962
111.5387962
111.5387962
111.5387961
111.5387961
111.538796
111.538796
111.5387959
111.5387959
111.5387958
111.5387958
111.5387957
111.5387956
111.5387956
111.5387955
111.5387954
111.5387953
111.5387952
111.5387951
111.5387952
111.5388014
111.5385165
111.538
111.538
111.5387859
111.5387859
111.5387859
111.5387859
111.5387859
111.5387859
111.5387859
111.5387859
111.5387859
111.5387859
111.5387858
111.5387858
111.5387858
111.5387858
111.5387858
111.5387857
111.5387857
111.5387857
111.5387856
111.5387856
111.5387856
111.5387855
111.5387855
111.5387854
111.5387854
111.5387853
111.5387853
111.5387852
111.5387851
111.5387851
111.538785
111.5387849
111.5387848
111.5387848
111.5387847
111.5387848
111.5387918
111.5384708
111.538
111.538
111.5387754
111.5387754
111.5387754
111.5387754
111.5387754
111.5387754
111.5387754
111.5387754
111.5387754
111.5387753
111.5387753
111.5387753
111.5387753
111.5387753
111.5387752
111.5387752
111.5387752
111.5387752
111.5387751
111.5387751
111.5387751
111.538775
111.538775
111.5387749
111.5387749
111.5387748
111.5387748
111.5387747
111.5387746
111.5387746
111.5387745
111.5387744
111.5387744
111.5387743
111.5387742
111.5387744
111.5387821
111.538429
111.538
111.538
111.5387649
111.5387649
111.5387649
111.5387649
111.5387649
111.5387649
111.5387649
111.5387648
111.5387648
111.5387648
111.5387648
111.5387648
111.5387648
111.5387648
111.5387647
111.5387647
111.5387647
111.5387646
111.5387646
111.5387646
111.5387645
111.5387645
111.5387645
111.5387644
111.5387644
111.5387643
111.5387643
111.5387642
111.5387641
111.5387641
111.538764
111.538764
111.5387639
111.5387638
111.5387638
111.538764
111.5387723
111.5383907
111.538
111.538
111.5387544
111.5387544
111.5387544
111.5387544
111.5387544
111.5387543
111.5387543
111.5387543
111.5387543
111.5387543
111.5387543
111.5387543
111.5387543
111.5387542
111.5387542
111.5387542
111.5387542
111.5387541
111.5387541
111.5387541
111.538754
111.538754
111.538754
111.5387539
111.5387539
111.5387538
111.5387538
111.5387537
111.5387537
111.5387536
111.5387535
111.5387535
111.5387534
111.5387534
111.5387533
111.5387536
111.5387625
111.5383554
111.538
111.538
111.5387438
111.5387438
111.5387438
111.5387438
111.5387438
111.5387438
111.5387438
111.5387438
111.5387438
111.5387438
111.5387438
111.5387438
111.5387437
111.5387437
111.5387437
111.5387437
111.5387437
111.5387436
111.5387436
111.5387436
111.5387435
111.5387435
111.5387435
111.5387434
111.5387434
111.5387433
111.5387433
111.5387432
111.5387432
111.5387431
111.5387431
111.538743
111.5387429
111.5387429
111.5387428
111.5387432
111.5387526
111.5383227
111.538
111.538
111.5387333
111.5387333
111.5387333
111.5387333
111.5387333
111.5387333
111.5387333
111.5387333
111.5387333
111.5387333
111.5387333
111.5387332
111.5387332
111.5387332
111.5387332
111.5387332
111.5387331
111.5387331
111.5387331
111.5387331
111.538733
111.538733
111.5387329
111.5387329
111.5387329
111.5387328
111.5387328
111.5387327
111.5387327
111.5387326
111.5387326
111.5387325
111.5387325
111.5387324
111.5387324
111.5387328
111.5387426
111.5382923
111.538
111.538
111.5387228
111.5387228
111.5387228
111.5387228
111.5387228
111.5387228
111.5387228
111.5387228
111.5387228
111.5387228
111.5387227
111.5387227
111.5387227
111.5387227
111.5387227
111.5387227
111.5387226
111.5387226
111.5387226
111.5387225
111.5387225
111.5387225
111.5387224
111.5387224
111.5387224
111.5387223
111.5387223
111.5387222
111.5387222
111.5387221
111.5387221
111.538722
111.538722
111.538722
111.5387219
111.5387224
111.5387326
111.5382639
111.538
111.538
111.5387123
111.5387123
111.5387123
111.5387123
111.5387123
111.5387123
111.5387123
111.5387123
111.5387123
111.5387122
111.5387122
111.5387122
111.5387122
111.5387122
111.5387122
111.5387121
111.5387121
111.5387121
111.5387121
111.538712
111.538712
111.538712
111.5387119
111.5387119
111.5387119
111.5387118
111.5387118
111.5387118
111.5387117
111.5387117
111.5387116
111.5387116
111.5387115
111.5387115
111.5387114
111.538712
111.5387225
111.5382371
111.538
111.538
111.5387018
111.5387018
111.5387018
111.5387018
111.5387018
111.5387018
111.5387018
111.5387018
111.5387017
111.5387017
111.5387017
111.5387017
111.5387017
111.5387017
111.5387017
111.5387016
111.5387016
111.5387016
111.5387016
111.5387015
111.5387015
111.5387015
111.5387015
111.5387014
111.5387014
111.5387013
111.5387013
111.5387013
111.5387012
111.5387012
111.5387011
111.5387011
111.5387011
111.538701
111.538701
111.5387015
111.5387124
111.5382117
111.538
111.538
111.5386913
111.5386913
111.5386913
111.5386913
111.5386913
111.5386913
111.5386912
111.5386912
111.5386912
111.5386912
111.5386912
111.5386912
111.5386912
111.5386912
111.5386912
111.5386911
111.5386911
111.5386911
111.5386911
111.538691
111.538691
111.538691
111.538691
111.5386909
111.5386909
111.5386909
111.5386908
111.5386908
111.5386907
111.5386907
111.5386907
111.5386906
111.5386906
111.5386906
111.5386905
111.5386911
111.5387023
111.5381874
111.538
111.538
111.5386808
111.5386808
111.5386808
111.5386808
111.5386807
111.5386807
111.5386807
111.5386807
111.5386807
111.5386807
111.5386807
111.5386807
111.5386807
111.5386807
111.5386806
111.5386806
111.5386806
111.5386806
111.5386806
111.5386805
111.5386805
111.5386805
111.5386805
111.5386804
111.5386804
111.5386804
111.5386803
111.5386803
111.5386803
111.5386802
111.5386802
111.5386802
111.5386801
111.5386801
111.53868
111.5386807
111.5386922
111.538164
111.538
111.538
111.5386702
111.5386702
111.5386702
111.5386702
111.5386702
111.5386702
111.5386702
111.5386702
111.5386702
111.5386702
111.5386702
111.5386702
111.5386702
111.5386702
111.5386701
111.5386701
111.5386701
111.5386701
111.5386701
111.53867
111.53867
111.53867
111.53867
111.5386699
111.5386699
111.5386699
111.5386698
111.5386698
111.5386698
111.5386697
111.5386697
111.5386697
111.5386696
111.5386696
111.5386696
111.5386702
111.538682
111.5381412
111.538
111.538
111.5386597
111.5386597
111.5386597
111.5386597
111.5386597
111.5386597
111.5386597
111.5386597
111.5386597
111.5386597
111.5386597
111.5386597
111.5386597
111.5386597
111.5386596
111.5386596
111.5386596
111.5386596
111.5386596
111.5386595
111.5386595
111.5386595
111.5386595
111.5386595
111.5386594
111.5386594
111.5386594
111.5386593
111.5386593
111.5386593
111.5386592
111.5386592
111.5386592
111.5386591
111.5386591
111.5386598
111.5386719
111.5381188
111.538
111.538
111.5386492
111.5386492
111.5386492
111.5386492
111.5386492
111.5386492
111.5386492
111.5386492
111.5386492
111.5386492
111.5386492
111.5386492
111.5386492
111.5386491
111.5386491
111.5386491
111.5386491
111.5386491
111.5386491
111.5386491
111.538649
111.538649
111.538649
111.538649
111.5386489
111.5386489
111.5386489
111.5386489
111.5386488
111.5386488
111.5386488
111.5386487
111.5386487
111.5386487
111.5386486
111.5386494
111.5386617
111.5380963
111.538
111.538
111.5386387
111.5386387
111.5386387
111.5386387
111.5386387
111.5386387
111.5386387
111.5386387
111.5386387
111.5386387
111.5386387
111.5386387
111.5386387
111.5386386
111.5386386
111.5386386
111.5386386
111.5386386
111.5386386
111.5386386
111.5386385
111.5386385
111.5386385
111.5386385
111.5386384
111.5386384
111.5386384
111.5386384
111.5386383
111.5386383
111.5386383
111.5386383
111.5386382
111.5386382
111.5386382
111.5386389
111.5386516
111.5380736
111.538
111.538
111.5386282
111.5386282
111.5386282
111.5386282
111.5386282
111.5386282
111.5386282
111.5386282
111.5386282
111.5386282
111.5386282
111.5386282
111.5386282
111.5386281
111.5386281
111.5386281
111.5386281
111.5386281
111.5386281
111.5386281
111.538628
111.538628
111.538628
111.538628
111.538628
111.5386279
111.5386279
111.5386279
111.5386279
111.5386278
111.5386278
111.5386278
111.5386278
111.5386277
111.5386277
111.5386285
111.5386414
111.5380498
111.538
111.538
111.5386177
111.5386177
111.5386177
111.5386177
111.5386177
111.5386177
111.5386177
111.5386177
111.5386177
111.5386177
111.5386177
111.5386177
111.5386177
111.5386176
111.5386176
111.5386176
111.5386176
111.5386176
111.5386176
111.5386176
111.5386176
111.5386175
111.5386175
111.5386175
111.5386175
111.5386175
111.5386174
111.5386174
111.5386174
111.5386174
111.5386173
111.5386173
111.5386173
111.5386173
111.5386172
111.5386181
111.5386313
111.5380247
111.538
111.538
111.5386072
111.5386072
111.5386072
111.5386072
111.5386072
111.5386072
111.5386072
111.5386072
111.5386072
111.5386072
111.5386072
111.5386072
111.5386072
111.5386071
111.5386071
111.5386071
111.5386071
111.5386071
111.5386071
111.5386071
111.5386071
111.5386071
111.538607
111.538607
111.538607
111.538607
111.538607
111.5386069
111.5386069
111.5386069
111.5386069
111.5386068
111.5386068
111.5386068
111.5386067
111.5386077
111.5386212
111.537998
111.538
111.538
111.5385967
111.5385967
111.5385967
111.5385967
111.5385967
111.5385967
111.5385967
111.5385967
111.5385967
111.5385967
111.5385967
111.5385967
111.5385967
111.5385966
111.5385966
111.5385966
111.5385966
111.5385966
111.5385966
111.5385966
111.5385966
111.5385966
111.5385965
111.5385965
111.5385965
111.5385965
111.5385965
111.5385965
111.5385964
111.5385964
111.5385964
111.5385964
111.5385963
111.5385963
111.5385963
111.5385972
111.5386112
111.5379697
111.538
111.538
111.5385862
111.5385862
111.5385862
111.5385862
111.5385862
111.5385862
111.5385862
111.5385862
111.5385862
111.5385862
111.5385862
111.5385862
111.5385862
111.5385861
111.5385861
111.5385861
111.5385861
111.5385861
111.5385861
111.5385861
111.5385861
111.5385861
111.5385861
111.5385861
111.538586
111.538586
111.538586
111.538586
111.538586
111.5385859
111.5385859
111.5385859
111.5385859
111.5385858
111.5385858
111.5385868
111.5386012
111.5379382
111.538
111.538
111.5385757
111.5385757
111.5385757
111.5385757
111.5385757
111.5385757
111.5385757
111.5385757
111.5385757
111.5385757
111.5385757
111.5385757
111.5385757
111.5385757
111.5385756
111.5385756
111.5385756
111.5385756
111.5385756
111.5385756
111.5385756
111.5385756
111.5385756
111.5385756
111.5385756
111.5385755
111.5385755
111.5385755
111.5385755
111.5385755
111.5385754
111.5385754
111.5385754
111.5385754
111.5385753
111.5385764
111.5385912
111.5379033
111.538
111.538
111.5385652
111.5385652
111.5385652
111.5385652
111.5385652
111.5385652
111.5385652
111.5385652
111.5385652
111.5385652
111.5385652
111.5385652
111.5385652
111.5385652
111.5385651
111.5385651
111.5385651
111.5385651
111.5385651
111.5385651
111.5385651
111.5385651
111.5385651
111.5385651
111.5385651
111.5385651
111.538565
111.538565
111.538565
111.538565
111.538565
111.5385649
111.5385649
111.5385649
111.5385649
111.538566
111.5385814
111.5378657
111.538
111.538
111.5385547
111.5385547
111.5385547
111.5385547
111.5385547
111.5385547
111.5385547
111.5385547
111.5385547
111.5385547
111.5385547
111.5385547
111.5385547
111.5385547
111.5385547
111.5385547
111.5385546
111.5385546
111.5385546
111.5385546
111.5385546
111.5385546
111.5385546
111.5385546
111.5385546
111.5385546
111.5385546
111.5385546
111.5385545
111.5385545
111.5385545
111.5385545
111.5385544
111.5385544
111.5385544
111.5385556
111.5385716
111.5378252
111.538
111.538
111.5385442
111.5385442
111.5385442
111.5385442
111.5385442
111.5385442
111.5385442
111.5385442
111.5385442
111.5385442
111.5385442
111.5385442
111.5385442
111.5385442
111.5385442
111.5385442
111.5385442
111.5385442
111.5385442
111.5385441
111.5385441
111.5385441
111.5385441
111.5385441
111.5385441
111.5385441
111.5385441
111.5385441
111.5385441
111.538544
111.538544
111.538544
111.538544
111.5385439
111.5385439
111.5385453
111.5385619
111.5377809
111.538
111.538
111.5385337
111.5385337
111.5385337
111.5385337
111.5385337
111.5385337
111.5385337
111.5385337
111.5385337
111.5385337
111.5385337
111.5385337
111.5385337
111.5385337
111.5385337
111.5385337
111.5385337
111.5385337
111.5385337
111.5385337
111.5385337
111.5385337
111.5385337
111.5385336
111.5385336
111.5385336
111.5385336
111.5385336
111.5385336
111.5385336
111.5385336
111.5385335
111.5385335
111.5385335
111.5385334
111.5385349
111.5385523
111.537734
111.538
111.538
111.5385231
111.5385231
111.5385231
111.5385231
111.5385232
111.5385232
111.5385232
111.5385232
111.5385232
111.5385232
111.5385232
111.5385232
111.5385232
111.5385232
111.5385232
111.5385232
111.5385232
111.5385232
111.5385232
111.5385232
111.5385232
111.5385232
111.5385232
111.5385232
111.5385232
111.5385232
111.5385232
111.5385231
111.5385231
111.5385231
111.5385231
111.5385231
111.538523
111.538523
111.538523
111.5385246
111.5385428
111.5376863
111.538
111.538
111.5385126
111.5385126
111.5385126
111.5385126
111.5385126
111.5385126
111.5385126
111.5385127
111.5385127
111.5385127
111.5385127
111.5385127
111.5385127
111.5385127
111.5385127
111.5385127
111.5385127
111.5385127
111.5385127
111.5385127
111.5385127
111.5385127
111.5385127
111.5385127
111.5385127
111.5385127
111.5385127
111.5385127
111.5385127
111.5385127
111.5385126
111.5385126
111.5385126
111.5385125
111.5385125
111.5385143
111.5385334
111.5376377
111.538
111.538
111.5385021
111.5385021
111.5385021
111.5385021
111.5385021
111.5385021
111.5385021
111.5385021
111.5385021
111.5385022
111.5385022
111.5385022
111.5385022
111.5385022
111.5385022
111.5385022
111.5385022
111.5385022
111.5385022
111.5385022
111.5385022
111.5385022
111.5385022
111.5385022
111.5385022
111.5385022
111.5385022
111.5385022
111.5385022
111.5385022
111.5385022
111.5385021
111.5385021
111.5385021
111.538502
111.5385041
111.5385242
111.537591
111.538
111.538
111.5384916
111.5384916
111.5384916
111.5384916
111.5384916
111.5384916
111.5384916
111.5384916
111.5384916
111.5384917
111.5384917
111.5384917
111.5384917
111.5384917
111.5384917
111.5384917
111.5384917
111.5384917
111.5384917
111.5384917
111.5384917
111.5384917
111.5384917
111.5384917
111.5384917
111.5384918
111.5384918
111.5384917
111.5384917
111.5384917
111.5384917
111.5384917
111.5384917
111.5384916
111.5384915
111.5384939
111.538515
111.5375425
111.538
111.538
111.5384811
111.5384811
111.5384811
111.5384811
111.5384811
111.5384811
111.5384811
111.5384811
111.5384811
111.5384811
111.5384812
111.5384812
111.5384812
111.5384812
111.5384812
111.5384812
111.5384812
111.5384812
111.5384812
111.5384812
111.5384812
111.5384812
111.5384813
111.5384813
111.5384813
111.5384813
111.5384813
111.5384813
111.5384813
111.5384813
111.5384813
111.5384812
111.5384812
111.5384811
111.5384811
111.5384837
111.5385059
111.5374895
111.538
111.538
111.5384706
111.5384706
111.5384706
111.5384706
111.5384706
111.5384706
111.5384706
111.5384706
111.5384706
111.5384706
111.5384707
111.5384707
111.5384707
111.5384707
111.5384707
111.5384707
111.5384707
111.5384707
111.5384707
111.5384707
111.5384708
111.5384708
111.5384708
111.5384708
111.5384708
111.5384708
111.5384708
111.5384708
111.5384708
111.5384708
111.5384708
111.5384708
111.5384708
111.5384707
111.5384706
111.5384737
111.5384971
111.5374265
111.538
111.538
111.5384601
111.5384601
111.5384601
111.5384601
111.5384601
111.5384601
111.5384601
111.5384601
111.5384601
111.5384601
111.5384601
111.5384602
111.5384602
111.5384602
111.5384602
111.5384602
111.5384602
111.5384602
111.5384602
111.5384603
111.5384603
111.5384603
111.5384603
111.5384603
111.5384603
111.5384603
111.5384604
111.5384604
111.5384604
111.5384604
111.5384604
111.5384603
111.5384603
111.5384602
111.5384602
111.5384638
111.5384886
111.5373438
111.538
111.538
111.5384496
111.5384496
111.5384496
111.5384496
111.5384496
111.5384496
111.5384496
111.5384496
111.5384496
111.5384496
111.5384496
111.5384497
111.5384497
111.5384497
111.5384497
111.5384497
111.5384497
111.5384497
111.5384497
111.5384498
111.5384498
111.5384498
111.5384498
111.5384498
111.5384499
111.5384499
111.5384499
111.5384499
111.5384499
111.5384499
111.5384499
111.5384499
111.5384499
111.5384498
111.5384498
111.5384542
111.5384805
111.5372274
111.538
111.538
111.5384391
111.5384391
111.5384391
111.5384391
111.5384391
111.5384391
111.5384391
111.5384391
111.5384391
111.5384391
111.5384391
111.5384392
111.5384392
111.5384392
111.5384392
111.5384392
111.5384392
111.5384392
111.5384393
111.5384393
111.5384393
111.5384393
111.5384393
111.5384394
111.5384394
111.5384394
111.5384394
111.5384395
111.5384395
111.5384395
111.5384395
111.5384395
111.5384395
111.5384394
111.5384393
111.5384451
111.5384731
111.5370545
111.538
111.538
111.5384286
111.5384286
111.5384286
111.5384286
111.5384286
111.5384286
111.5384286
111.5384286
111.5384286
111.5384286
111.5384286
111.5384286
111.5384287
111.5384287
111.5384287
111.5384287
111.5384287
111.5384287
111.5384288
111.5384288
111.5384288
111.5384288
111.5384289
111.5384289
111.5384289
111.5384289
111.538429
111.538429
111.538429
111.538429
111.5384291
111.5384291
111.538429
111.538429
111.538429
111.5384367
111.5384664
111.536798
111.538
111.538
111.5384181
111.5384181
111.5384181
111.5384181
111.5384181
111.5384181
111.5384181
111.5384181
111.5384181
111.5384181
111.5384181
111.5384181
111.5384182
111.5384182
111.5384182
111.5384182
111.5384182
111.5384182
111.5384183
111.5384183
111.5384183
111.5384184
111.5384184
111.5384184
111.5384184
111.5384185
111.5384185
111.5384186
111.5384186
111.5384186
111.5384186
111.5384187
111.5384186
111.5384186
111.5384187
111.5384301
111.5384592
111.5364877
111.538
111.538
111.5384076
111.5384076
111.5384076
111.5384076
111.5384076
111.5384076
111.5384076
111.5384076
111.5384076
111.5384076
111.5384076
111.5384076
111.5384076
111.5384077
111.5384077
111.5384077
111.5384077
111.5384078
111.5384078
111.5384078
111.5384078
111.5384079
111.5384079
111.5384079
111.538408
111.538408
111.5384081
111.5384081
111.5384081
111.5384082
111.5384082
111.5384082
111.5384083
111.5384082
111.5384087
111.5384269
111.5384438
111.5365939
111.538
111.538
111.5383971
111.5383971
111.5383971
111.5383971
111.5383971
111.5383971
111.5383971
111.5383971
111.5383971
111.5383971
111.5383971
111.5383971
111.5383971
111.5383972
111.5383972
111.5383972
111.5383972
111.5383973
111.5383973
111.5383973
111.5383973
111.5383974
111.5383974
111.5383975
111.5383975
111.5383975
111.5383976
111.5383976
111.5383977
111.5383978
111.5383978
111.5383979
111.5383979
111.5383978
111.5383992
111.5384313
111.5383808
111.538
111.538
111.538
111.5383864
111.5383864
111.5383864
111.5383865
111.5383865
111.5383865
111.5383865
111.5383865
111.5383865
111.5383866
111.5383866
111.5383866
111.5383866
111.5383867
111.5383867
111.5383867
111.5383867
111.5383868
111.5383868
111.5383868
111.5383869
111.5383869
111.5383869
111.538387
111.538387
111.5383871
111.5383871
111.5383872
111.5383873
111.5383873
111.5383874
111.5383875
111.5383875
111.5383874
111.5383918
111.5384528
111.5380027
111.538
111.538
111.538
111.5384059
111.5384044
111.5384046
111.5384032
111.5384029
111.5384026
111.5384024
111.5384023
111.5384022
111.5384022
111.5384021
111.538402
111.5384019
111.5384018
111.5384018
111.5384018
111.5384016
111.5384016
111.5384017
111.5384018
111.5384019
111.5384018
111.538402
111.5384021
111.5384023
111.5384027
111.5384029
111.5384034
111.5384039
111.5384046
111.538405
111.5384057
111.5384061
111.538406
111.5384211
111.5385143
111.5342126
111.538
111.538
111.538
111.538
111.538
111.538
111.538
111.538
111.538
111.538
111.538
111.538
111.538
111.538
111.538
111.538
111.538
111.538
111.538
111.538
111.538
111.538
111.538
111.538
111.538
111.538
111.538
111.538
111.538
111.538
111.538
111.538
111.538
111.538
111.538
111.538
111.538
111.538
111.538
111.538
111.538
111.538
111.538
111.538
111.538
111.538
111.538
111.538
111.538
111.538
111.538
111.538
111.538
111.538
111.538
111.538
111.538
111.538
111.538
111.538
111.538
111.538
111.538
111.538
111.538
111.538
111.538
111.538
111.538
111.538
111.538
111.538
111.538
111.538
111.538
111.538
111.538
111.538
111.538
111.538
111.538
111.538
111.538
111.6646975
111.6639523
111.6626136
111.6618888
111.6613865
111.6609335
111.6604835
111.6600268
111.659553
111.6590512
111.658505
111.6579063
111.6572484
111.6565215
111.6556882
111.6547593
111.6537563
111.6526443
111.6514002
111.6499767
111.6484019
111.6466537
111.6446926
111.6424634
111.6398802
111.6369387
111.6334389
111.6292257
111.6239417
111.6174217
111.6086893
111.5969969
111.5822624
111.5669713
111.555515
111.5514948
111.5663773
111.6169228
111.5268485
111.707549
111.677831
111.6778044
111.6777889
111.6777849
111.6777828
111.6777812
111.6777797
111.6777781
111.6777762
111.6777744
111.6777722
111.6777696
111.6777666
111.6777634
111.6777595
111.6777554
111.6777501
111.6777446
111.6777378
111.6777296
111.6777204
111.6777085
111.6776947
111.6776777
111.6776556
111.6776294
111.6775925
111.6775434
111.6774716