/*--------------------------------*- C++ -*----------------------------------*\
| =========                 |                                                 |
| \\      /  F ield         | OpenFOAM: The Open Source CFD Toolbox           |
|  \\    /   O peration     | Version:  v1912                                 |
|   \\  /    A nd           | Website:  www.openfoam.com                      |
|    \\/     M anipulation  |                                                 |
\*---------------------------------------------------------------------------*/
FoamFile
{
    version     2.0;
    format      ascii;
    class       volVectorField;
    location    "0.2";
    object      U.gas_0;
}
// * * * * * * * * * * * * * * * * * * * * * * * * * * * * * * * * * * * * * //

dimensions      [0 1 -1 0 0 0 0];


internalField   nonuniform List<vector> 
4800
(
(5.981899964e-05 1.328763027e-19 0.01254609439)
(0.000102812978 1.012543041e-19 0.01254591766)
(0.0001620129402 -5.238120213e-18 0.01254555669)
(0.0002245443155 1.034093054e-19 0.01254500545)
(0.0002893001862 1.382899008e-19 0.01254426103)
(0.000356297036 1.359417414e-19 0.01254331815)
(0.0004258261161 1.367036789e-19 0.01254216963)
(0.0004982860739 1.120474515e-19 0.01254080634)
(0.0005741370213 -5.225219107e-18 0.01253921702)
(0.0006538873224 9.443056112e-20 0.01253738796)
(0.0007380919822 5.517709417e-18 0.01253530273)
(0.0008273563683 5.559407867e-18 0.01253294169)
(0.0009223431995 2.077767465e-19 0.01253028145)
(0.001023782174 1.240893686e-19 0.01252729411)
(0.001132482259 1.356532554e-19 0.01252394624)
(0.001249347079 1.359000068e-19 0.01252019772)
(0.001375394144 1.35875945e-19 0.01251600017)
(0.001511778972 1.401385839e-19 0.01251129501)
(0.001659825522 1.359609092e-19 0.01250601082)
(0.001821064865 1.358133888e-19 0.01250005988)
(0.00199728475 1.358765856e-19 0.01249333351)
(0.0021905938 1.35822362e-19 0.01248569589)
(0.002403505545 1.357223046e-19 0.01247697569)
(0.002639049881 1.356292708e-19 0.01246695453)
(0.002900922768 1.358333312e-19 0.01245535069)
(0.003193690232 1.353784478e-19 0.01244179592)
(0.003523071114 1.352889674e-19 0.01242580161)
(0.003896336102 1.358176312e-19 0.01240670864)
(0.004322882909 1.357159804e-19 0.012383611)
(0.00481508566 1.356750542e-19 0.01235523608)
(0.005389584488 1.357512115e-19 0.01231975062)
(0.006069308842 1.343306639e-19 0.01227443376)
(0.006886778244 1.365700762e-19 0.01221510059)
(0.007889749161 2.63913505e-19 0.01213502724)
(0.00915147004 -4.736244535e-18 0.01202280003)
(0.01079088292 -8.489569824e-19 0.01185755699)
(0.01301926624 2.155733236e-19 0.01159611254)
(0.01625519415 1.820870712e-19 0.01112385514)
(0.02257421418 1.496786771e-19 0.00903423406)
(0.0132655212 1.373214724e-19 0.02135152732)
(5.94986163e-05 1.35314899e-19 0.02419194755)
(0.0001022392144 1.015782721e-19 0.02419143372)
(0.0001610977355 -5.366408803e-18 0.02419034891)
(0.0002232797546 1.039437444e-19 0.02418869292)
(0.0002876855246 1.414961716e-19 0.02418645681)
(0.0003543339564 1.383933261e-19 0.02418362474)
(0.0004235175508 1.391307154e-19 0.02418017518)
(0.0004956357285 1.112305566e-19 0.02417608076)
(0.0005711490811 -5.352790867e-18 0.02417130769)
(0.0006505662003 9.697814006e-20 0.02416581495)
(0.0007344420538 5.651305051e-18 0.02415955334)
(0.0008233816537 5.69275895e-18 0.02415246408)
(0.000918046935 2.141103454e-19 0.02414447715)
(0.001019166228 1.263819397e-19 0.02413550901)
(0.001127546345 1.380299094e-19 0.02412545969)
(0.001244087707 1.382919621e-19 0.02411420924)
(0.001369803221 1.3826678e-19 0.02410161312)
(0.001505841931 1.382618958e-19 0.02408749636)
(0.001653518762 1.382489463e-19 0.02407164574)
(0.001814352244 1.381358671e-19 0.02405379948)
(0.001990112728 1.381340718e-19 0.02403363352)
(0.002182884665 1.381381185e-19 0.02401074323)
(0.002395147892 1.381557836e-19 0.02398461865)
(0.002629884976 1.379607689e-19 0.02395461034)
(0.002890724797 1.378191975e-19 0.02391988152)
(0.00318213717 1.382078819e-19 0.02387933976)
(0.003509700819 1.379482629e-19 0.02383153806)
(0.003880478716 1.376463241e-19 0.0237745284)
(0.004303553905 1.379884354e-19 0.02370563965)
(0.004790811329 1.383165251e-19 0.02362113125)
(0.005358106351 1.389875514e-19 0.02351563575)
(0.006027059657 1.380442891e-19 0.02338122865)
(0.006827899715 1.372342849e-19 0.02320580967)
(0.007804113561 2.610724484e-19 0.02297014227)
(0.009020306942 -4.834915723e-18 0.02264210639)
(0.01057569117 -8.346652579e-19 0.02216467886)
(0.0126235534 2.16036739e-19 0.02142845177)
(0.01533065396 1.854743565e-19 0.0202083361)
(0.0185035761 1.194361038e-19 0.01562434787)
(0.009932679141 1.182602847e-19 0.04921949881)
(5.903149457e-05 1.347374234e-19 0.02330108636)
(0.0001014402355 1.011077126e-19 0.02330025157)
(0.0001598387992 -5.364354244e-18 0.02329844528)
(0.0002215320401 1.041649343e-19 0.02329568732)
(0.0002854296527 1.415084153e-19 0.02329196328)
(0.0003515497352 1.38356493e-19 0.02328724702)
(0.0004201813901 1.391661686e-19 0.02328150288)
(0.0004917193961 1.1124515e-19 0.02327468548)
(0.0005666187286 -5.349549374e-18 0.02326673886)
(0.0006453813593 9.763926918e-20 0.02325759515)
(0.0007285544729 5.649733532e-18 0.02324717294)
(0.0008167338739 5.690417897e-18 0.0232353751)
(0.0009105704992 2.133606326e-19 0.02322208589)
(0.001010779408 1.265059864e-19 0.02320716725)
(0.001118151253 1.380974254e-19 0.02319045419)
(0.001233566605 1.383101505e-19 0.02317174892)
(0.001358013775 1.383000081e-19 0.02315081343)
(0.001492611049 1.341201232e-19 0.02312735977)
(0.001638634533 1.381744921e-19 0.0231010374)
(0.001797553251 1.384027828e-19 0.02307141642)
(0.001971073765 1.383355319e-19 0.02303796547)
(0.002161197451 1.379284565e-19 0.0230000222)
(0.002370294652 1.378265129e-19 0.02295675341)
(0.002601201734 1.376230961e-19 0.02290710019)
(0.002857349542 1.381927508e-19 0.02284970134)
(0.003142935245 1.379150057e-19 0.02278278495)
(0.003463155341 1.376721785e-19 0.02270401212)
(0.00382452589 1.380193602e-19 0.02261024728)
(0.004235328756 1.382667185e-19 0.02249721309)
(0.00470624287 1.37575269e-19 0.02235895801)
(0.005251249689 1.376671928e-19 0.02218701225)
(0.005888946681 1.369570879e-19 0.02196900715)
(0.006644460339 1.42608028e-19 0.02168633807)
(0.007552186557 2.49019334e-19 0.02131005785)
(0.008659430966 -4.8663528e-18 0.020793378)
(0.010029953 -7.749792115e-19 0.02005750801)
(0.01174241253 2.252303878e-19 0.01896546826)
(0.01384216361 1.553621991e-19 0.01730020373)
(0.01534176312 1.555615736e-19 0.01241728125)
(0.007751037022 1.271809787e-19 0.06171816907)
(5.831155527e-05 1.349173873e-19 0.02326648624)
(0.0001002052693 1.014085732e-19 0.02326533129)
(0.0001578931417 -5.363851735e-18 0.02326281297)
(0.0002188333256 1.043804731e-19 0.02325896586)
(0.0002819482991 1.406592568e-19 0.02325377102)
(0.0003472548661 1.383785725e-19 0.02324719251)
(0.0004150370276 1.391566016e-19 0.02323918101)
(0.0004856825875 1.110134002e-19 0.02322967376)
(0.0005596380858 -5.349802436e-18 0.02321859335)
(0.0006373955656 9.860844977e-20 0.02320584605)
(0.0007194905516 5.650341559e-18 0.02319131952)
(0.0008065050675 5.689935293e-18 0.02317487974)
(0.0008990736139 2.123818045e-19 0.02315636715)
(0.0009978914613 1.267546383e-19 0.0231355916)
(0.001103725225 1.381009205e-19 0.02311232614)
(0.001217426023 1.383323331e-19 0.02308629911)
(0.001339945768 1.382980797e-19 0.02305718406)
(0.001472357333 1.38250028e-19 0.02302458664)
(0.001615879619 1.382755198e-19 0.02298802748)
(0.001771908902 1.384075336e-19 0.02294691984)
(0.001942058294 1.385175435e-19 0.02290054009)
(0.002128207831 1.378791547e-19 0.02284798845)
(0.00233256852 1.381978152e-19 0.02278813627)
(0.002557764818 1.378936278e-19 0.02271955366)
(0.002806941805 1.380302284e-19 0.02264040935)
(0.003083905377 1.380514101e-19 0.02254832997)
(0.003393307028 1.379826965e-19 0.02244019927)
(0.003740889035 1.383021205e-19 0.0223118662)
(0.004133810788 1.378740771e-19 0.02215771226)
(0.004581082822 1.384971107e-19 0.0219699959)
(0.005094137652 1.384443546e-19 0.02173783635)
(0.005687556377 1.361462017e-19 0.02144560078)
(0.006379918589 1.383088698e-19 0.02107028226)
(0.007194567889 2.429760307e-19 0.02057714442)
(0.008159585845 -4.868496255e-18 0.01991238109)
(0.009305058597 -6.913131459e-19 0.01899076286)
(0.01065363578 2.219205498e-19 0.01767561775)
(0.012067615 1.518220813e-19 0.01575721969)
(0.01242093041 1.528632991e-19 0.01132859707)
(0.005975147245 1.346608158e-19 0.07258575629)
(5.735878909e-05 1.347025984e-19 0.02318241211)
(9.8568671e-05 1.010154117e-19 0.02318094065)
(0.0001553136936 -5.364255493e-18 0.02317772197)
(0.0002152556101 1.045621876e-19 0.0231728035)
(0.0002773334694 1.414189271e-19 0.02316616206)
(0.0003415623087 1.383577066e-19 0.02315775237)
(0.0004082194251 1.391961462e-19 0.02314751213)
(0.0004776834917 1.107565697e-19 0.02313536197)
(0.0005503900275 -5.348478668e-18 0.02312120413)
(0.0006268181182 9.989601942e-20 0.02310492036)
(0.0007074880834 5.650903637e-18 0.023086369)
(0.0007929639975 5.689285199e-18 0.02306538127)
(0.0008838589842 2.112467081e-19 0.02304175636)
(0.0009808426228 1.270782959e-19 0.02301525537)
(0.001084650389 1.381251192e-19 0.02298559359)
(0.001196095333 1.38311341e-19 0.02295243086)
(0.001316082414 1.383059907e-19 0.02291535914)
(0.001445626062 1.383060424e-19 0.02287388652)
(0.001585871767 1.382605691e-19 0.02282741635)
(0.001738122719 1.38181857e-19 0.0227752202)
(0.001903872865 1.38259448e-19 0.02271640228)
(0.00208484815 1.380738904e-19 0.02264985253)
(0.002283058155 1.38018403e-19 0.02257418356)
(0.002500860903 1.380283017e-19 0.02248764523)
(0.002741044461 1.3795128e-19 0.02238800717)
(0.003006929609 1.379862059e-19 0.02227239573)
(0.003302498407 1.379362636e-19 0.02213706404)
(0.003632553582 1.382216711e-19 0.02197706296)
(0.004002911204 1.383133608e-19 0.02178576215)
(0.004420622027 1.380852638e-19 0.02155414135)
(0.004894197253 1.37341075e-19 0.02126972397)
(0.005433765892 1.381964436e-19 0.02091494798)
(0.006050979308 1.383584267e-19 0.02046464625)
(0.006758228265 2.30422907e-19 0.01988212609)
(0.007566222559 -4.95242227e-18 0.01911309934)
(0.008478053223 -6.043590307e-19 0.01807646273)
(0.009476159088 2.25015776e-19 0.01665067592)
(0.01028175455 1.605310271e-19 0.01464657082)
(0.009740334279 1.28061585e-19 0.01105355703)
(0.004409414972 1.395548459e-19 0.08139294791)
(5.617569667e-05 1.349142344e-19 0.02310286462)
(9.653578185e-05 1.010732021e-19 0.02310108283)
(0.0001521094246 -5.364160122e-18 0.02309717824)
(0.0002108115505 1.049406925e-19 0.02309121072)
(0.0002716018008 1.40535569e-19 0.02308315312)
(0.0003344930962 1.383866001e-19 0.02307295141)
(0.0003997545533 1.392222134e-19 0.02306053105)
(0.0004677537118 1.104027132e-19 0.02304579714)
(0.0005389126666 -5.350378176e-18 0.02302863286)
(0.0006136947431 1.014482536e-19 0.02300889706)
(0.0006926017948 5.651331866e-18 0.02298642083)
(0.000776176132 5.688244914e-18 0.02296100317)
(0.0008650050184 2.098825792e-19 0.02293240528)
(0.0009597270383 1.274112486e-19 0.02290034358)
(0.001061040197 1.381115562e-19 0.02286448077)
(0.00116971186 1.383311652e-19 0.02282441475)
(0.0012865908 1.383212992e-19 0.0227796643)
(0.001412621736 1.382765378e-19 0.02272965068)
(0.001548862898 1.382798317e-19 0.02267367399)
(0.001696507288 1.382204531e-19 0.0226108824)
(0.001856908444 1.382540155e-19 0.02254023222)
(0.002031611703 1.380652681e-19 0.02246043534)
(0.002222391986 1.382357587e-19 0.02236988929)
(0.002431299113 1.380063627e-19 0.02226658324)
(0.002660711648 1.378621926e-19 0.02214797036)
(0.002913399503 1.380740778e-19 0.02201079289)
(0.003192593791 1.380832095e-19 0.02185083955)
(0.003502058985 1.383066775e-19 0.02166260461)
(0.003846154193 1.377629185e-19 0.02143880325)
(0.004229854274 1.380046072e-19 0.02116967498)
(0.004658668774 1.386021207e-19 0.02084197237)
(0.005138330611 1.384390001e-19 0.02043748527)
(0.005673999808 1.383239534e-19 0.01993088713)
(0.006268489739 2.145124269e-19 0.0192866231)
(0.006918608174 -4.975106604e-18 0.01845452192)
(0.00760803483 -5.09441423e-19 0.01736385143)
(0.008293856505 2.168918679e-19 0.01591578787)
(0.008818641867 1.585842926e-19 0.01395930506)
(0.007821354287 1.41162145e-19 0.01136027224)
(0.003290333184 1.343944964e-19 0.08840679778)
(5.476737827e-05 1.349762249e-19 0.02302495993)
(9.411567342e-05 1.008154417e-19 0.02302287564)
(0.0001482948733 -5.364135329e-18 0.02301830244)
(0.0002055215358 1.054042349e-19 0.02301131256)
(0.0002647799495 1.404643215e-19 0.02300187526)
(0.0003260806912 1.383405922e-19 0.02298992842)
(0.0003896833752 1.392344045e-19 0.02297538619)
(0.0004559425887 1.100009188e-19 0.0229581393)
(0.0005252648252 -5.350826815e-18 0.02293805342)
(0.0005980951217 1.034323586e-19 0.0229149664)
(0.0006749139437 5.652459083e-18 0.02288868448)
(0.0007562384581 5.686875495e-18 0.02285897739)
(0.0008426261426 2.081176264e-19 0.02282557214)
(0.0009346799902 1.278192875e-19 0.02278814516)
(0.00103305512 1.381540898e-19 0.02274631257)
(0.001138466781 1.383474407e-19 0.02269961786)
(0.001251699874 1.383369228e-19 0.02264751621)
(0.001373620184 1.383274325e-19 0.02258935441)
(0.001505187579 1.383276151e-19 0.02252434514)
(0.001647471483 1.382179505e-19 0.02245153389)
(0.001801668855 1.381681008e-19 0.02236975621)
(0.001969124916 1.380416576e-19 0.02227758187)
(0.002151356518 1.381069989e-19 0.02217324135)
(0.002350077485 1.381551069e-19 0.02205452808)
(0.002567224538 1.380259893e-19 0.02191866764)
(0.002804980495 1.3802393e-19 0.02176214129)
(0.00306578796 1.379555871e-19 0.02158044586)
(0.003352340762 1.383804801e-19 0.02136776404)
(0.003667528721 1.381453073e-19 0.0211165086)
(0.004014290685 1.387790235e-19 0.02081668968)
(0.004395293719 1.383785625e-19 0.02045503489)
(0.004812289532 1.377671559e-19 0.02001377326)
(0.005264885707 1.385917787e-19 0.01946898017)
(0.005748280724 2.0180538e-19 0.01878839503)
(0.006249216841 -5.035636184e-18 0.01792870712)
(0.006738953513 -4.223196214e-19 0.01683252302)
(0.007161248504 2.110598091e-19 0.01542584985)
(0.007299729066 1.474857077e-19 0.01359771952)
(0.005883419186 1.407579043e-19 0.01200505412)
(0.002244104377 1.329085634e-19 0.09392882515)
(5.313992834e-05 1.349194549e-19 0.02294920211)
(9.131894279e-05 1.010593783e-19 0.02294682445)
(0.0001438869082 -5.363710687e-18 0.0229416026)
(0.0001994092107 1.05813043e-19 0.02293362115)
(0.0002568988325 1.403883507e-19 0.02292284621)
(0.0003163639065 1.383581502e-19 0.02290920829)
(0.0003780533905 1.392634898e-19 0.02289261128)
(0.0004423073078 1.095037318e-19 0.0228729329)
(0.0005095146255 -5.351373968e-18 0.02285002298)
(0.0005800998732 1.055287991e-19 0.0228237005)
(0.0006545195979 5.653874701e-18 0.0227937495)
(0.0007332629353 5.685816674e-18 0.0227599138)
(0.0008168542697 2.061619805e-19 0.02272189036)
(0.0009058572013 1.283018283e-19 0.02267932088)
(0.001000879556 1.381504543e-19 0.02263178144)
(0.00110257934 1.383443297e-19 0.02257876943)
(0.001211671595 1.383186135e-19 0.02251968694)
(0.001328936183 1.419834831e-19 0.02245381963)
(0.001455226469 1.383485906e-19 0.02238030995)
(0.001591478871 1.382525647e-19 0.02229812292)
(0.001738722973 1.381807698e-19 0.02220600219)
(0.001898091688 1.38157095e-19 0.02210241327)
(0.002070830472 1.381094567e-19 0.02198546959)
(0.002258303454 1.381001952e-19 0.02185283564)
(0.002461993049 1.380222372e-19 0.0217015993)
(0.002683487104 1.380781186e-19 0.02152810295)
(0.002924442881 1.382248946e-19 0.02132771883)
(0.00318650999 1.383776757e-19 0.02109454884)
(0.003471181588 1.381355028e-19 0.02082102342)
(0.003779521594 1.378781108e-19 0.02049736736)
(0.004111681124 1.389616116e-19 0.02011089534)
(0.004466059735 1.367025249e-19 0.01964510258)
(0.004837879147 1.392397068e-19 0.01907853758)
(0.005216806516 1.849930521e-19 0.01838350667)
(0.005583080514 -5.048690836e-18 0.01752480885)
(0.005901336001 -3.36938857e-19 0.01645901928)
(0.006110955465 2.009419532e-19 0.01513565532)
(0.005969393648 1.424874067e-19 0.01348127627)
(0.004316050451 1.397982187e-19 0.01284875178)
(0.001433516735 1.211943453e-19 0.09826856263)
(5.130034661e-05 1.350174017e-19 0.02287588337)
(8.815768317e-05 1.00451201e-19 0.0228732226)
(0.0001389047279 -5.364174599e-18 0.02286737454)
(0.0001925014676 1.062679941e-19 0.02285843606)
(0.0002479936006 1.409626299e-19 0.02284637064)
(0.0003053868437 1.383630642e-19 0.02283110227)
(0.0003649185263 1.393096022e-19 0.02281252566)
(0.0004269127194 1.089292877e-19 0.02279050696)
(0.0004917392093 -5.350676928e-18 0.022764882)
(0.0005598001367 1.080120952e-19 0.02273545319)
(0.0006315260269 5.655060418e-18 0.02270198525)
(0.0007073756345 5.684620761e-18 0.02266419966)
(0.0007878376123 2.039743708e-19 0.02262176778)
(0.0008734332024 1.287939116e-19 0.02257430219)
(0.0009647196033 1.381877765e-19 0.02252134592)
(0.001062293819 1.383378951e-19 0.022462359)
(0.00116679683 1.383175347e-19 0.02239670144)
(0.001278917909 1.382726866e-19 0.02232361181)
(0.001399398833 1.382493604e-19 0.02224218015)
(0.001529037601 1.381925316e-19 0.02215131382)
(0.001668690958 1.381068044e-19 0.02204969398)
(0.001819274546 1.380516821e-19 0.02193572002)
(0.001981758861 1.380829483e-19 0.02180743806)
(0.00215715792 1.38115889e-19 0.02166244892)
(0.00234650563 1.379981833e-19 0.02149778906)
(0.002550812097 1.37979823e-19 0.02130977655)
(0.00277098697 1.382331307e-19 0.02109381157)
(0.003007709353 1.382570783e-19 0.02084411877)
(0.003261211673 1.381140847e-19 0.02055341649)
(0.003530925463 1.379930515e-19 0.02021249932)
(0.003814908355 1.380450839e-19 0.01980972423)
(0.004108927945 1.383718242e-19 0.01933040921)
(0.004405018417 1.394602511e-19 0.0187561943)
(0.004689248395 1.716360541e-19 0.0180645009)
(0.004938349885 -5.11927937e-18 0.01722839593)
(0.005114789203 -2.617119043e-19 0.01621750442)
(0.005160077742 1.929712398e-19 0.01500133741)
(0.004822545239 1.438299044e-19 0.01354135752)
(0.003038552031 1.370967084e-19 0.01378580383)
(0.0007915558166 1.266580617e-19 0.1016871776)
(4.925642847e-05 1.350877053e-19 0.02280529765)
(8.464533242e-05 1.002942788e-19 0.02280236504)
(0.0001333696421 -5.364168931e-18 0.0227959154)
(0.0001848281389 1.068499185e-19 0.02278605783)
(0.0002381032253 1.408496271e-19 0.02277275371)
(0.0002931983608 1.38378544e-19 0.02275592137)
(0.000350338461 1.393680108e-19 0.02273544753)
(0.0004098304867 1.083130013e-19 0.02271118829)
(0.00047202368 -5.351501337e-18 0.0226829674)
(0.0005372962749 1.107110618e-19 0.0226505731)
(0.000606051116 5.656551294e-18 0.02261375378)
(0.0006787147786 5.683424401e-18 0.02257221234)
(0.0007557382429 2.016424209e-19 0.02252559919)
(0.0008375983013 1.294064816e-19 0.02247350357)
(0.0009247992764 1.382702193e-19 0.02241544264)
(0.001017874807 1.383964237e-19 0.02235084802)
(0.001117389395 1.383886227e-19 0.02227904892)
(0.001223939369 1.383530813e-19 0.02219925091)
(0.00133815282 1.383125657e-19 0.02211050952)
(0.00146068783 1.383451034e-19 0.0220116971)
(0.001592227957 1.383601456e-19 0.0219014612)
(0.001733473294 1.383048983e-19 0.02177817194)
(0.001885124722 1.382923324e-19 0.02163985556)
(0.002047857546 1.38642835e-19 0.02148411027)
(0.002222278578 1.382628814e-19 0.02130800003)
(0.002408858012 1.383185563e-19 0.02110792052)
(0.002607822371 1.383750471e-19 0.02087943124)
(0.002818987841 1.38741009e-19 0.02061704749)
(0.003041502889 1.387082317e-19 0.0203139872)
(0.003273453228 1.38456098e-19 0.01996187346)
(0.003511261319 1.384908684e-19 0.0195504052)
(0.003748783434 1.395973155e-19 0.01906703425)
(0.003975972973 1.407565079e-19 0.01849673681)
(0.004176944665 1.593657904e-19 0.0178220581)
(0.004327254778 -5.153554018e-18 0.01702377164)
(0.004390246874 -1.911680508e-19 0.0160827872)
(0.004312596932 1.829498815e-19 0.01498435824)
(0.003843644728 1.433305724e-19 0.01371886158)
(0.001999267275 1.366175493e-19 0.01475583723)
(0.0002819585889 1.044491417e-19 0.1044001425)
(4.701666739e-05 1.347202446e-19 0.02273772673)
(8.079652347e-05 1.001830925e-19 0.02273453438)
(0.0001273048472 -5.364254964e-18 0.02272750977)
(0.0001764216848 1.079843846e-19 0.02271677405)
(0.0002272700816 1.400570678e-19 0.02270228709)
(0.0002798515256 1.391696639e-19 0.02268396244)
(0.0003343779235 1.403734873e-19 0.02266168002)
(0.0003911382129 1.087055385e-19 0.02263528747)
(0.0004504600286 -5.353637579e-18 0.0226045984)
(0.0005126965507 1.15094819e-19 0.02256938938)
(0.0005782217369 5.659888712e-18 0.02252939551)
(0.0006474287466 5.683452447e-18 0.02248430493)
(0.0007207296362 2.011294854e-19 0.02243375181)
(0.0007985555119 1.322206945e-19 0.02237730783)
(0.0008813566683 1.407286612e-19 0.0223144715)
(0.0009696023876 1.410754961e-19 0.02224465497)
(0.001063780009 1.413236324e-19 0.02216716772)
(0.001164392771 1.415745279e-19 0.02208119624)
(0.001271955805 1.419350675e-19 0.02198577886)
(0.001386989392 1.420922322e-19 0.02187977469)
(0.001510008197 1.42411916e-19 0.02176182499)
(0.001641504469 1.427541392e-19 0.02163030506)
(0.001781922474 1.429626938e-19 0.02148326462)
(0.001931620005 1.429924084e-19 0.02131835404)
(0.002090810633 1.440325408e-19 0.0211327336)
(0.002259477889 1.44287e-19 0.02092296264)
(0.002437248168 1.447593756e-19 0.02068486639)
(0.00262320309 1.450759827e-19 0.02041337984)
(0.002815604107 1.459402292e-19 0.02010237167)
(0.003011490525 1.467736885e-19 0.01974445967)
(0.003206098865 1.477363278e-19 0.01933084525)
(0.003392035515 1.478779493e-19 0.01885122226)
(0.003558121158 1.518000536e-19 0.01829386521)
(0.003687823688 1.523975971e-19 0.01764608574)
(0.003757224778 -5.171124919e-18 0.01689538384)
(0.003732564746 -1.238020988e-19 0.01603184772)
(0.00356773627 1.871444872e-19 0.01505249851)
(0.003017244903 1.472614144e-19 0.01396899319)
(0.001173463838 1.4166361e-19 0.01571597015)
(-0.000106770725 9.91817838e-20 0.106538094)
(4.459016695e-05 1.35077504e-19 0.02267344003)
(7.662694185e-05 9.982009363e-20 0.0226700008)
(0.0001207351989 -5.36438887e-18 0.0226624295)
(0.000167316867 1.080799367e-19 0.0226508592)
(0.0002155395085 1.405373861e-19 0.02263524878)
(0.0002654030469 1.383836146e-19 0.02261550789)
(0.0003171059782 1.394985796e-19 0.02259151091)
(0.0003709185462 1.068041347e-19 0.02256309852)
(0.0004271460189 -5.353338728e-18 0.02253007623)
(0.0004861157494 1.168399878e-19 0.02249221137)
(0.0005481720601 5.660050034e-18 0.02244922884)
(0.0006136740011 5.679874927e-18 0.02240080576)
(0.0006829941191 1.963120893e-19 0.02234656475)
(0.0007565174284 1.30628652e-19 0.02228606561)
(0.0008346400817 1.38250546e-19 0.02221879521)
(0.000917767326 1.383558478e-19 0.02214415489)
(0.001006310294 1.383543594e-19 0.0220614451)
(0.001100681027 1.383139642e-19 0.02196984643)
(0.001201284973 1.383350641e-19 0.02186839639)
(0.001308509925 1.383218154e-19 0.02175596106)
(0.001422709974 1.382997386e-19 0.02163120042)
(0.001544182271 1.381806123e-19 0.02149252595)
(0.001673133711 1.381707047e-19 0.02133804907)
(0.001809633343 1.37721515e-19 0.02116551921)
(0.001953544322 1.380677198e-19 0.0209722501)
(0.002104427 1.381244146e-19 0.0207550333)
(0.002261401293 1.381017136e-19 0.02051004009)
(0.002422951688 1.381726995e-19 0.02023271554)
(0.002586652905 1.38137604e-19 0.01991767349)
(0.002748786634 1.381082768e-19 0.01955861093)
(0.002903813297 1.3829879e-19 0.01914827765)
(0.003043657652 1.386341445e-19 0.01867856334)
(0.003156768966 1.424398068e-19 0.01814080832)
(0.003226936911 1.295394892e-19 0.01752651391)
(0.003231902867 -5.209540957e-18 0.01682873175)
(0.003141942975 -8.016304414e-20 0.01604456464)
(0.00291895245 1.683651153e-19 0.0151791159)
(0.002323597099 1.387705319e-19 0.0142587299)
(0.0005126888346 1.399063836e-19 0.0166345211)
(-0.000408191018 1.359879976e-19 0.1082350329)
(4.198654725e-05 1.349007181e-19 0.02261269377)
(7.215317037e-05 9.955721571e-20 0.02260902112)
(0.0001136869753 -5.364490817e-18 0.0226009329)
(0.0001575504113 1.087701146e-19 0.02258857378)
(0.0002029593531 1.403472294e-19 0.02257190221)
(0.0002499126842 1.38377476e-19 0.02255082484)
(0.0002985952762 1.395595873e-19 0.02252521168)
(0.0003492582589 1.059236795e-19 0.02249489803)
(0.0004021840712 -5.354365365e-18 0.0224596832)
(0.0004576738239 1.201952466e-19 0.0224193277)
(0.0005160418849 5.661924384e-18 0.02237354925)
(0.0005776130231 5.678533282e-18 0.02232201761)
(0.0006427203318 1.93413174e-19 0.02226434827)
(0.0007117031181 1.312505601e-19 0.02220009466)
(0.000784904243 1.382581578e-19 0.02212873867)
(0.0008626664263 1.383275502e-19 0.02204967901)
(0.0009453270235 1.38280944e-19 0.02196221712)
(0.001033210597 1.383543289e-19 0.02186553991)
(0.001126618424 1.382891114e-19 0.02175869899)
(0.001225813853 1.382889897e-19 0.02164058563)
(0.001331002014 1.382243354e-19 0.02150990071)
(0.001442301679 1.380983067e-19 0.02136511865)
(0.001559706288 1.381349692e-19 0.02120444485)
(0.001683030256 1.376149839e-19 0.02102576617)
(0.001811834857 1.378342149e-19 0.02082659452)
(0.001945326153 1.379267271e-19 0.02060400454)
(0.002082215015 1.378430356e-19 0.02035456865)
(0.002220525811 1.380871634e-19 0.02007429674)
(0.002357337411 1.376492608e-19 0.01975859268)
(0.002488436191 1.376709287e-19 0.01940225002)
(0.002607859504 1.375993283e-19 0.0189995253)
(0.002707311017 1.380321558e-19 0.01854435062)
(0.002775441469 1.41063403e-19 0.01803078196)
(0.002797021667 1.170311656e-19 0.01745383181)
(0.002752106979 -5.232503142e-18 0.01681090195)
(0.002615439649 -3.325047951e-20 0.01610411022)
(0.002356682206 1.596403589e-19 0.01534349196)
(0.001742878108 1.40127136e-19 0.01456485594)
(-1.229923442e-05 1.374159109e-19 0.01749329351)
(-0.0006383861473 1.179054945e-19 0.10960993)
(3.921586985e-05 1.349184214e-19 0.02255573025)
(6.739255583e-05 9.94939846e-20 0.02255183818)
(0.0001061876484 -5.364327062e-18 0.02254326395)
(0.0001471606767 1.090787536e-19 0.02253016359)
(0.0001895795219 1.39631266e-19 0.0225124956)
(0.0002334426643 1.377512543e-19 0.02249016446)
(0.0002789213254 1.388830217e-19 0.02246303696)
(0.0003262473392 1.040582887e-19 0.02243094451)
(0.0003756801448 -5.356463866e-18 0.0223936821)
(0.0004274945277 1.225741576e-19 0.02235100577)
(0.0004819749803 5.662729306e-18 0.02230262885)
(0.0005394123061 5.67497104e-18 0.02224821721)
(0.0006001007881 1.887426183e-19 0.02218738346)
(0.0006643351276 1.301538385e-19 0.02211967973)
(0.0007324066269 1.362127405e-19 0.02204458914)
(0.0008045980621 1.361082638e-19 0.02196151532)
(0.0008811767188 1.358597531e-19 0.02186976975)
(0.0009623849228 1.383465006e-19 0.02176855669)
(0.001048427141 1.353652013e-19 0.02165695506)
(0.00113945253 1.35076055e-19 0.02153389719)
(0.001235531467 1.348413703e-19 0.02139814368)
(0.001336623956 1.345416317e-19 0.0212482542)
(0.001442537047 1.342341489e-19 0.02108255407)
(0.001552867802 1.341763619e-19 0.02089909711)
(0.001666926847 1.335325735e-19 0.020695626)
(0.001783636179 1.331830988e-19 0.02046953247)
(0.001901393371 1.32847522e-19 0.02021782225)
(0.002017892139 1.324050298e-19 0.01993709387)
(0.002129888386 1.324368257e-19 0.01962354554)
(0.002232899768 1.321703154e-19 0.01927303327)
(0.002320829324 1.321170139e-19 0.01888121743)
(0.002385511875 1.319891812e-19 0.01844385341)
(0.00241619987 1.372097234e-19 0.01795730718)
(0.0023990431 9.521139187e-20 0.01741941031)
(0.002316689485 -5.242269147e-18 0.01683080321)
(0.002148267393 -1.692951637e-21 0.01619692841)
(0.001870288884 1.496041823e-19 0.01553034337)
(0.001254904613 1.350137805e-19 0.01487265856)
(-0.0004381722108 1.383106525e-19 0.01828476743)
(-0.0008205670033 1.188039766e-19 0.1107333227)
(3.628855657e-05 1.349896647e-19 0.02250277733)
(6.236306119e-05 9.897505906e-20 0.02249868022)
(9.826565307e-05 -5.364747492e-18 0.02248965186)
(0.0001361873241 1.102127843e-19 0.02247585925)
(0.0001754515451 1.399626248e-19 0.0224572614)
(0.0002160571319 1.384161332e-19 0.02243376141)
(0.0002581618076 1.397828656e-19 0.02240522395)
(0.0003019781516 1.039534135e-19 0.02237147796)
(0.0003477426941 -5.356471114e-18 0.02233231589)
(0.0003957041199 1.27534275e-19 0.02228749141)
(0.0004461174947 5.666399665e-18 0.02223671615)
(0.0004992404111 5.674586028e-18 0.02217965531)
(0.0005553295201 1.873568603e-19 0.02211592242)
(0.0006146366681 1.32728031e-19 0.02204507302)
(0.0006774040845 1.383159819e-19 0.02196659706)
(0.000743858084 1.383817316e-19 0.02187990979)
(0.0008142006738 1.383811339e-19 0.02178434081)
(0.0008885984512 1.383637974e-19 0.02167912123)
(0.0009671678861 1.383754374e-19 0.02156336865)
(0.001049955835 1.38452111e-19 0.02143606966)
(0.001136913928 1.383474809e-19 0.02129606004)
(0.001227864903 1.383000786e-19 0.02114200223)
(0.001322458261 1.383401905e-19 0.02097236108)
(0.001420112293 1.386973198e-19 0.02078537843)
(0.001519938411 1.381289733e-19 0.02057904891)
(0.001620642793 1.382151292e-19 0.0203511002)
(0.001720399622 1.382219171e-19 0.02009898371)
(0.001816689094 1.384204349e-19 0.0198198852)
(0.001906094077 1.380910199e-19 0.01951077028)
(0.001984050537 1.380404308e-19 0.01916848702)
(0.002044551576 1.379521958e-19 0.01878995848)
(0.002079815791 1.384790055e-19 0.01837251234)
(0.002079950681 1.439249811e-19 0.01791441)
(0.002032678007 8.939495117e-20 0.01741565569)
(0.001923250981 -5.262453796e-18 0.01687917419)
(0.001734795689 3.638229474e-20 0.01631241226)
(0.001449482972 1.499154769e-19 0.01572881567)
(0.0008427743301 1.386576725e-19 0.01517378573)
(-0.0007796813054 1.381270653e-19 0.01900464137)
(-0.0009591356344 1.178622274e-19 0.1116775735)
(3.321531193e-05 1.350741365e-19 0.02245404794)
(5.708313245e-05 9.887767921e-20 0.02244976047)
(8.995015977e-05 -5.36457392e-18 0.02244031056)
(0.0001246709852 1.109366831e-19 0.02242587573)
(0.0001606281351 1.393277663e-19 0.0224064159)
(0.0001978215933 1.384296844e-19 0.02238183354)
(0.0002363958935 1.399196072e-19 0.02235199223)
(0.0002765446018 1.027814927e-19 0.0223167197)
(0.0003184816665 -5.35842651e-18 0.02227580748)
(0.0003624301742 1.314488264e-19 0.02222900891)
(0.0004086165254 5.668544104e-18 0.02217603625)
(0.0004572662422 5.672546411e-18 0.0221165569)
(0.0005085999925 1.842002545e-19 0.02205018883)
(0.0005628290662 1.334885143e-19 0.02197649508)
(0.000620149761 1.383169146e-19 0.02189497736)
(0.0006807361548 1.383856809e-19 0.02180506836)
(0.0007447306141 1.383799204e-19 0.02170612266)
(0.0008122314743 1.383593244e-19 0.02159740622)