/*--------------------------------*- C++ -*----------------------------------*\
| =========                 |                                                 |
| \\      /  F ield         | OpenFOAM: The Open Source CFD Toolbox           |
|  \\    /   O peration     | Version:  v1912                                 |
|   \\  /    A nd           | Website:  www.openfoam.com                      |
|    \\/     M anipulation  |                                                 |
\*---------------------------------------------------------------------------*/
FoamFile
{
    version     2.0;
    format      ascii;
    class       volVectorField;
    location    "0.2";
    object      U.gas;
}
// * * * * * * * * * * * * * * * * * * * * * * * * * * * * * * * * * * * * * //

dimensions      [0 1 -1 0 0 0 0];


internalField   nonuniform List<vector> 
4800
(
(6.183575034e-05 1.337982869e-19 0.01254467513)
(0.0001062761458 1.018651605e-19 0.01254449362)
(0.0001674606116 -5.275511021e-18 0.01254412539)
(0.0002320741604 1.03424948e-19 0.01254356338)
(0.0002989663347 1.394126571e-19 0.01254280458)
(0.0003681476886 1.369279803e-19 0.0125418436)
(0.0004399124764 1.376846547e-19 0.01254067313)
(0.0005146655089 1.130705792e-19 0.01253928392)
(0.0005928745806 -5.261748382e-18 0.01253766453)
(0.0006750567339 9.268039817e-20 0.0125358011)
(0.0007617764882 5.556044446e-18 0.012533677)
(0.0008536495066 5.600550104e-18 0.01253127236)
(0.0009513495752 2.117548725e-19 0.01252856348)
(0.001055618272 1.244531201e-19 0.0125255221)
(0.001167277358 1.366159955e-19 0.01252211439)
(0.001287244337 1.368872202e-19 0.01251829978)
(0.001416551887 1.368625889e-19 0.01251402942)
(0.001556372206 1.412507324e-19 0.01250924409)
(0.001708047682 1.369485515e-19 0.0125038716)
(0.00187312981 1.367879262e-19 0.01249782335)
(0.002053429099 1.368364435e-19 0.01249098964)
(0.00225107964 1.367861201e-19 0.01248323353)
(0.002468623605 1.3669812e-19 0.01247438242)
(0.002709123153 1.365761686e-19 0.0124642164)
(0.002976310557 1.368172336e-19 0.01245245204)
(0.003274792547 1.363392601e-19 0.01243871923)
(0.003610333037 1.362228104e-19 0.01242252758)
(0.003990251521 1.3683717e-19 0.01240321654)
(0.004423996332 1.367398756e-19 0.01237987966)
(0.004923989306 1.366187306e-19 0.01235124602)
(0.005506905335 1.367253675e-19 0.01231548862)
(0.006195674511 1.351741783e-19 0.01226990267)
(0.007022738624 1.374132961e-19 0.01221033997)
(0.008035604594 2.697242005e-19 0.01213015733)
(0.009306894153 -4.75495065e-18 0.01201811937)
(0.01095407119 -8.781372354e-19 0.01185377125)
(0.01318497216 2.152682513e-19 0.01159488876)
(0.01640904956 1.851176926e-19 0.01112961655)
(0.02271876656 1.522702235e-19 0.009032414063)
(0.01333767348 1.377146884e-19 0.02140391916)
(6.152406117e-05 1.36261255e-19 0.02418768037)
(0.0001057156523 1.021881177e-19 0.02418715445)
(0.0001665652386 -5.405057749e-18 0.02418604811)
(0.0002308366407 1.039491946e-19 0.02418435989)
(0.0002973863287 1.426790661e-19 0.0241820806)
(0.0003662272931 1.39414139e-19 0.02417919412)
(0.0004376550736 1.401465387e-19 0.02417567855)
(0.0005120753109 1.122405269e-19 0.02417150612)
(0.0005899563636 -5.390579181e-18 0.02416664259)
(0.0006718156057 9.520793154e-20 0.02416104646)
(0.0007582176283 5.690965503e-18 0.02415466792)
(0.0008497778424 5.735273926e-18 0.02414744749)
(0.0009471693418 2.182411608e-19 0.02413931422)
(0.001051132436 1.267669048e-19 0.0241301835)
(0.001162486854 1.390266821e-19 0.02411995418)
(0.001282147045 1.393166747e-19 0.02410850497)
(0.001411141259 1.392894136e-19 0.0240956898)
(0.001550635401 1.392765078e-19 0.02408133181)
(0.001701963023 1.392397194e-19 0.0240652155)
(0.001866663318 1.391411204e-19 0.0240470764)
(0.002046529696 1.391521295e-19 0.02402658744)
(0.002243672452 1.39118245e-19 0.02400334058)
(0.002460600554 1.391550912e-19 0.02397682191)
(0.002700329499 1.389773937e-19 0.0239463774)
(0.002966525394 1.388114542e-19 0.023911165)
(0.003263700077 1.39249946e-19 0.02387008664)
(0.003597479333 1.38998802e-19 0.02382168968)
(0.003974978059 1.386619563e-19 0.02376402135)
(0.004405335048 1.390404916e-19 0.02369440822)
(0.00490049167 1.393581136e-19 0.02360911315)
(0.005476353382 1.399696029e-19 0.02350278466)
(0.00615456976 1.389624057e-19 0.02336754066)
(0.006965346007 1.379171409e-19 0.02319137894)
(0.007952030603 2.670295819e-19 0.02295527833)
(0.009178845493 -4.854073316e-18 0.02262758951)
(0.01074410815 -8.641405017e-19 0.02215233991)
(0.01279913868 2.154407967e-19 0.02142255174)
(0.01550557021 1.887861565e-19 0.02022062166)
(0.01867604554 1.179562455e-19 0.01562005674)
(0.01001815584 1.178336746e-19 0.04938532592)
(6.104756456e-05 1.356325617e-19 0.0232939684)
(0.0001049010745 1.017051507e-19 0.02329311605)
(0.0001652819896 -5.403009985e-18 0.02329127429)
(0.000229055301 1.041785176e-19 0.02328846277)
(0.0002950871911 1.42693322e-19 0.02328466678)
(0.0003633898603 1.393738734e-19 0.02327985975)
(0.0004342554163 1.401843165e-19 0.02327400547)
(0.0005080848067 1.122520262e-19 0.02326705792)
(0.0005853407203 -5.387314274e-18 0.02325896039)
(0.0006665338512 9.589452158e-20 0.02324964422)
(0.000752220927 5.689417688e-18 0.023239027)
(0.0008430080425 5.73292133e-18 0.02322701035)
(0.000939557159 2.174705844e-19 0.02321347701)
(0.00104259516 1.268873936e-19 0.0231982872)
(0.001152925451 1.391034503e-19 0.02318127398)
(0.001271442451 1.393286113e-19 0.02316223735)
(0.001399149601 1.393105597e-19 0.02314093665)
(0.001537181786 1.350193131e-19 0.02311708076)
(0.001686833419 1.391758235e-19 0.02309031535)
(0.001849593824 1.394167044e-19 0.02306020617)
(0.002027192223 1.393413652e-19 0.02302621683)
(0.0022216554 1.38925138e-19 0.02298767925)
(0.002435382348 1.388014385e-19 0.02294375354)
(0.00267124188 1.385940023e-19 0.022893373)
(0.00293270164 1.392138414e-19 0.02283516758)
(0.003224000598 1.389258845e-19 0.02276735566)
(0.003550382611 1.386493782e-19 0.02268758843)
(0.00391841703 1.391134194e-19 0.02259272122)
(0.004336445018 1.392749973e-19 0.0224784706)
(0.004815209843 1.386508667e-19 0.0223388866)
(0.005368759622 1.386016771e-19 0.02216551813)
(0.006015755003 1.378201225e-19 0.02194605141)
(0.006781370459 1.438193314e-19 0.02166201178)
(0.007700014242 2.547456872e-19 0.02128473759)
(0.008818937029 -4.886099025e-18 0.0207680538)
(0.0102017426 -8.033852126e-19 0.02003449453)
(0.01192685812 2.255973498e-19 0.01895002163)
(0.0140428757 1.589040358e-19 0.01730662318)
(0.0155594646 1.578325007e-19 0.01240300833)
(0.007862016261 1.265743213e-19 0.06201756732)
(6.031351293e-05 1.358662488e-19 0.02325653413)
(0.0001036421244 1.020112358e-19 0.02325535565)
(0.0001632987367 -5.402491308e-18 0.02325278806)
(0.0002263046006 1.044002798e-19 0.0232488662)
(0.0002915389715 1.418160638e-19 0.02324357084)
(0.0003590127721 1.393996518e-19 0.02323686546)
(0.0004290129638 1.401732987e-19 0.02322870002)
(0.0005019334543 1.120122347e-19 0.02321901088)
(0.0005782284162 -5.38756959e-18 0.02320771966)
(0.0006583985135 9.690193374e-20 0.02319473147)
(0.0007429886768 5.690043945e-18 0.02317993254)
(0.0008325910466 5.732428945e-18 0.02316318712)
(0.0009278509518 2.164493214e-19 0.02314433356)
(0.00102947527 1.271487078e-19 0.02312317935)
(0.00113824313 1.391083332e-19 0.02309949488)
(0.001255019225 1.39351417e-19 0.02307300536)
(0.001380770261 1.393134019e-19 0.02304338066)
(0.001516585306 1.392506125e-19 0.02301022198)
(0.00166370109 1.39279599e-19 0.02297304479)
(0.001823533647 1.39413461e-19 0.0229312563)
(0.001997718134 1.39553091e-19 0.02288412597)
(0.002188159314 1.388752266e-19 0.02283074601)
(0.002397096077 1.392089948e-19 0.02276997834)
(0.002627184505 1.388598521e-19 0.0227003821)
(0.002881605688 1.390260655e-19 0.02262011349)
(0.003164206735 1.390342302e-19 0.02252678527)
(0.003479686496 1.390466884e-19 0.02241726645)
(0.003833841754 1.393224967e-19 0.02228739148)
(0.004233894897 1.389649616e-19 0.02213152987)
(0.004688929481 1.394502422e-19 0.02194193546)
(0.005210463223 1.394875685e-19 0.02170774036)
(0.005813178659 1.369641814e-19 0.02141336167)
(0.006515781526 1.391750116e-19 0.02103591838)
(0.007341788355 2.484765106e-19 0.02054095316)
(0.00831956141 -4.888933291e-18 0.01987524721)
(0.009479755029 -7.185393441e-19 0.01895478499)
(0.01084642536 2.231534461e-19 0.01764539073)
(0.01228680826 1.541022032e-19 0.01574382377)
(0.01267409433 1.551297958e-19 0.01128815776)
(0.006108779353 1.340053161e-19 0.07304598002)
(5.934218027e-05 1.356423896e-19 0.02316964902)
(0.0001019737586 1.016131409e-19 0.02316814796)
(0.0001606693566 -5.402907199e-18 0.02316486636)
(0.0002226577937 1.04584026e-19 0.0231598522)
(0.0002868352593 1.426042186e-19 0.02315308197)
(0.0003532109287 1.393777712e-19 0.02314450972)
(0.0004220649998 1.402177123e-19 0.02313407223)
(0.0004937821636 1.117463925e-19 0.02312168909)
(0.0005688054575 -5.386208407e-18 0.02310726129)
(0.0006476224412 9.823732728e-20 0.02309066908)
(0.0007307626538 5.690632628e-18 0.02307176897)
(0.0008188000582 5.73176959e-18 0.02305038994)
(0.0009123583559 2.152728116e-19 0.0230263286)
(0.001012118458 1.274852816e-19 0.02299934306)
(0.001118828045 1.391294585e-19 0.02296914525)
(0.001233313373 1.393267703e-19 0.02293539104)
(0.00135649374 1.393267057e-19 0.02289766768)
(0.001489399235 1.393111289e-19 0.02285547765)
(0.001633192551 1.392683597e-19 0.02280821777)
(0.001789195916 1.391712923e-19 0.02275515204)
(0.001958924499 1.392775017e-19 0.02269537593)
(0.002144128031 1.390896992e-19 0.02262776909)
(0.002346842886 1.390487568e-19 0.02255093211)
(0.002569457516 1.390115858e-19 0.02246310075)
(0.002814794773 1.389825532e-19 0.02236202842)
(0.003086215545 1.390222105e-19 0.02224482324)
(0.003387748622 1.389727841e-19 0.02210771834)
(0.003724251685 1.392913008e-19 0.02194574356)
(0.004101606472 1.393311035e-19 0.02175224844)
(0.004526943975 1.391619555e-19 0.02151819762)
(0.005008876682 1.383510533e-19 0.02123111292)
(0.005557668369 1.391194971e-19 0.02087346025)
(0.006185163287 1.393369592e-19 0.02042016032)
(0.006904056407 2.36089687e-19 0.01983472465)
(0.007725592883 -4.974935708e-18 0.01906328726)
(0.008653911349 -6.2941359e-19 0.01802556145)
(0.009673660016 2.271060772e-19 0.01660148337)
(0.01051333907 1.630026174e-19 0.01460436406)
(0.01001385405 1.288578643e-19 0.01098066542)
(0.00455440854 1.383931766e-19 0.08203721626)
(5.813603676e-05 1.358397121e-19 0.0230873199)
(9.990135238e-05 1.016737618e-19 0.02308550249)
(0.0001574029161 -5.402801483e-18 0.02308152151)
(0.0002181276797 1.049879342e-19 0.02307543766)
(0.0002809928851 1.416894488e-19 0.02306722341)
(0.0003460056189 1.394096304e-19 0.02305682394)
(0.0004134378259 1.40242847e-19 0.0230441637)
(0.000483662948 1.113901036e-19 0.02302914652)
(0.0005571104487 -5.38817288e-18 0.02301165409)
(0.0006342519362 9.984206433e-20 0.02299154341)
(0.0007155982515 5.691054546e-18 0.02296864335)
(0.0008017013223 5.730687077e-18 0.02294275024)
(0.0008931586917 2.138588275e-19 0.02291362219)
(0.0009906199463 1.278316279e-19 0.02288097208)
(0.001094794913 1.391135595e-19 0.02284445857)
(0.001206463704 1.39353419e-19 0.02280367479)
(0.001326488872 1.393383634e-19 0.02275813384)
(0.001455830133 1.392773144e-19 0.02270725031)
(0.001595562157 1.392825287e-19 0.02265031652)
(0.001746896095 1.39233346e-19 0.02258647161)
(0.001911205673 1.392553486e-19 0.02251466142)
(0.0020900588 1.390632167e-19 0.02243358546)
(0.002285255781 1.392467566e-19 0.02234162669)
(0.002498875264 1.38969535e-19 0.0222367572)
(0.002733328879 1.388723669e-19 0.02211641034)
(0.002991424894 1.390869265e-19 0.0219773057)
(0.003276439625 1.390946419e-19 0.02181520635)
(0.00359219164 1.393888277e-19 0.02162457823)
(0.00394310638 1.387942928e-19 0.02139810654)
(0.004334242814 1.390523928e-19 0.02112600163)
(0.004771221852 1.39575122e-19 0.0207949932)
(0.005259932773 1.393284596e-19 0.02038686401)
(0.005805770738 1.392709491e-19 0.01987631274)
(0.006411930565 2.197784753e-19 0.01922786924)
(0.007075885145 -4.998191071e-18 0.01839154211)
(0.007782543791 -5.322431928e-19 0.01729690328)
(0.008491335181 2.187739505e-19 0.01584551633)
(0.009052902671 1.608258065e-19 0.01388565424)
(0.008091877337 1.421557841e-19 0.01125687012)
(0.003430231095 1.348124696e-19 0.08923985209)
(5.670023427e-05 1.358775793e-19 0.02300666928)
(9.743408136e-05 1.014145719e-19 0.02300454347)
(0.0001535141317 -5.402781387e-18 0.02299988063)
(0.0002127349059 1.054628525e-19 0.02299275412)
(0.0002740388512 1.41614123e-19 0.02298313279)
(0.000337430752 1.393571192e-19 0.02297095364)
(0.0004031729586 1.402520084e-19 0.02295612967)
(0.0004716258143 1.109740088e-19 0.02293855018)
(0.0005432029942 -5.388647681e-18 0.02291807909)
(0.0006183575858 1.019052733e-19 0.02289455208)
(0.0006975787749 5.692243968e-18 0.0228677728)
(0.0007813930408 5.729273604e-18 0.0228375079)
(0.0008703677971 2.120309371e-19 0.02280348086)
(0.0009651166566 1.282534659e-19 0.02276536405)
(0.001066306106 1.391592801e-19 0.02272276891)
(0.001174663597 1.393773075e-19 0.02267523341)
(0.001290987159 1.393610512e-19 0.02262220619)
(0.001416156803 1.393247836e-19 0.02256302638)
(0.001551147944 1.393360015e-19 0.02249689774)
(0.001697047109 1.392358439e-19 0.02242285544)
(0.0018550702 1.391934958e-19 0.02233972293)
(0.002026583538 1.390627994e-19 0.02224605567)
(0.002213127624 1.390814743e-19 0.02214006722)
(0.00241644311 1.391586676e-19 0.02201953116)
(0.002638497528 1.390556695e-19 0.02188164981)
(0.002881509561 1.390166469e-19 0.02172287741)
(0.00314796438 1.390246481e-19 0.02153867947)
(0.003440607382 1.394398468e-19 0.02132320261)
(0.0037623927 1.391909853e-19 0.02106881881)
(0.004116342598 1.398772766e-19 0.02076549302)
(0.004505237366 1.393285618e-19 0.02039990481)
(0.004930991166 1.386369641e-19 0.01995423415)
(0.00539345854 1.395154095e-19 0.01940450789)
(0.005888235222 2.068286759e-19 0.01871841486)
(0.00640273328 -5.060627458e-18 0.01785256959)
(0.006909374734 -4.428753557e-19 0.01674939726)
(0.007353948744 2.143061221e-19 0.01533438442)
(0.007523468597 1.48701091e-19 0.01349358658)
(0.00612876463 1.418837104e-19 0.01187831361)
(0.00236698397 1.341032522e-19 0.09493872078)
(5.504094135e-05 1.359174738e-19 0.02292820749)
(9.458267038e-05 1.016533805e-19 0.02292578254)
(0.0001490200797 -5.40235165e-18 0.02292045807)
(0.0002065034206 1.058930876e-19 0.02291232008)
(0.0002660044877 1.415344378e-19 0.02290133428)
(0.0003275256667 1.393783386e-19 0.02288743025)
(0.0003913185418 1.402821218e-19 0.02287051057)
(0.0004577287139 1.104753108e-19 0.02285045137)
(0.0005271521114 -5.38921644e-18 0.02282710048)
(0.000600021053 1.040708989e-19 0.02280027442)
(0.0006768005074 5.69372334e-18 0.02276975431)
(0.0007579885888 5.728184468e-18 0.02273528053)
(0.0008441192355 2.09989282e-19 0.02269654608)
(0.0009357662284 1.287502391e-19 0.02265318816)
(0.001033548242 1.39154725e-19 0.02260477757)
(0.001138134867 1.39372818e-19 0.02255080551)
(0.001250253543 1.393409102e-19 0.02249066672)
(0.001370697499 1.431171925e-19 0.02242363837)
(0.001500334634 1.393637552e-19 0.02234885301)
(0.001640117276 1.392570355e-19 0.02226526411)
(0.001791092504 1.391921819e-19 0.0221716018)
(0.001954412623 1.391632197e-19 0.02206631556)
(0.002131344713 1.391273867e-19 0.02194749983)
(0.002323277332 1.390877299e-19 0.02181279671)
(0.002531720914 1.390352106e-19 0.02165926768)
(0.002758295894 1.390924213e-19 0.02148322404)
(0.003004698283 1.392750441e-19 0.02128000124)
(0.003272624904 1.39418338e-19 0.02104365759)
(0.003563628251 1.391624768e-19 0.02076657193)
(0.003878849951 1.388839653e-19 0.0204389077)
(0.004218547377 1.398905292e-19 0.02004790586)
(0.004581272633 1.375637442e-19 0.01957697042)
(0.004962476738 1.40146818e-19 0.01900452954)
(0.005352185332 1.890428764e-19 0.01830271403)
(0.005731212985 -5.074281349e-18 0.01743603025)
(0.006065121745 -3.554197327e-19 0.0163604994)
(0.006294739984 2.040605266e-19 0.0150245187)
(0.006178009285 1.441670871e-19 0.01335048122)
(0.00453555991 1.409600082e-19 0.01270950824)
(0.001540706174 1.210242192e-19 0.09943606865)
(5.31652395e-05 1.360070219e-19 0.02285223287)
(9.135936007e-05 1.010215094e-19 0.02284951917)
(0.0001439402046 -5.40284329e-18 0.02284355579)
(0.0001994604754 1.063677924e-19 0.02283444134)
(0.0002569254259 1.421271784e-19 0.02282213889)
(0.0003163350715 1.393824054e-19 0.02280657143)
(0.0003779292362 1.403284482e-19 0.02278763226)
(0.0004420373634 1.098826629e-19 0.02276518576)
(0.0005090359552 -5.388513058e-18 0.02273906553)
(0.0005793346612 1.066402056e-19 0.02270907127)
(0.0006533721053 5.69494464e-18 0.02267496447)
(0.0007316156564 5.726944579e-18 0.02263646285)
(0.0008145631005 2.07717343e-19 0.02259323349)
(0.0009027453709 1.292669694e-19 0.02254488399)
(0.0009967299383 1.391967498e-19 0.0224909516)
(0.001097124714 1.393560377e-19 0.02243088954)
(0.001204582284 1.393487361e-19 0.02236404986)
(0.00131980435 1.392762369e-19 0.02228966184)
(0.001443546111 1.392531107e-19 0.02220680478)
(0.001576620137 1.392046127e-19 0.02211437349)
(0.001719899066 1.391253385e-19 0.02201103437)
(0.001874316008 1.390449399e-19 0.02189516929)
(0.002040860796 1.390874779e-19 0.02176480362)
(0.002220569125 1.391481212e-19 0.02161751364)
(0.002414499611 1.389770247e-19 0.02145030668)
(0.002623690919 1.389795783e-19 0.02125946611)
(0.0028490865 1.392681182e-19 0.02104035047)
(0.003091406563 1.393618071e-19 0.02078713405)
(0.003350935076 1.391659093e-19 0.0204924739)
(0.003627170866 1.389847236e-19 0.02014708858)
(0.00391826287 1.389675639e-19 0.01973923847)
(0.004220107606 1.394492852e-19 0.0192541138)
(0.004524927413 1.404403786e-19 0.01867317491)
(0.004819071342 1.753238162e-19 0.01797357104)
(0.005079692311 -5.14728865e-18 0.01712792314)
(0.005269872699 -2.78329574e-19 0.0161050731)
(0.005331984399 1.959445516e-19 0.01487311716)
(0.005012873372 1.455891424e-19 0.01338921737)
(0.003231623076 1.38230969e-19 0.01364093286)
(0.0008838547575 1.27502446e-19 0.1029910464)
(5.108101488e-05 1.360266364e-19 0.0227790453)
(8.777775933e-05 1.008766763e-19 0.02277605425)
(0.0001382961048 -5.402842799e-18 0.02276947693)
(0.0001916363184 1.069658513e-19 0.02275942447)
(0.0002468411843 1.420156523e-19 0.02274585789)
(0.0003039085023 1.393974507e-19 0.02272869443)
(0.0003630655315 1.403875394e-19 0.02270781929)
(0.0004246243842 1.092511589e-19 0.02268308663)
(0.0004889407555 -5.38937454e-18 0.02265431778)
(0.0005564000937 1.094348286e-19 0.02262129803)
(0.000627412999 5.696490211e-18 0.0225837723)
(0.0007024142657 5.725716238e-18 0.02254143948)
(0.0007818635492 2.053075962e-19 0.02249394534)
(0.0008662467988 1.299046221e-19 0.02244087377)
(0.0009560779914 1.392797185e-19 0.0223817357)
(0.001051900951 1.394246564e-19 0.02231595545)
(0.001154290946 1.394197424e-19 0.02224285369)
(0.001263855732 1.393757724e-19 0.02216162614)
(0.001381235618 1.393057151e-19 0.02207131685)
(0.001507101814 1.393754868e-19 0.02197078479)
(0.001642152029 1.393865175e-19 0.02185866174)
(0.00178710174 1.393251844e-19 0.02173329915)
(0.001942668664 1.392842401e-19 0.02159270107)
(0.002109546724 1.39661305e-19 0.02143443946)
(0.002288363681 1.392873519e-19 0.02125554694)
(0.002479613624 1.393439223e-19 0.02105238153)
(0.002683550967 1.394365473e-19 0.02082045719)
(0.002900025407 1.398321701e-19 0.02055423342)
(0.003128226816 1.397464867e-19 0.02024685897)
(0.003366294013 1.395933514e-19 0.01988986933)
(0.003610719742 1.395613188e-19 0.01947284916)
(0.003855455923 1.405861158e-19 0.01898309566)
(0.004090588168 1.416528414e-19 0.01840536475)
(0.004300412415 1.629263433e-19 0.0177218703)
(0.004460725132 -5.182696979e-18 0.01691286011)
(0.00453515648 -2.056965927e-19 0.01595837029)
(0.004470671008 1.859564063e-19 0.01484216582)
(0.004013687834 1.445682867e-19 0.0135506619)
(0.002164376805 1.375112272e-19 0.01461003771)
(0.0003587431563 1.030870044e-19 0.1058085536)
(4.879686103e-05 1.357319261e-19 0.02270893231)
(8.385269905e-05 1.007517658e-19 0.02270567617)
(0.0001321113082 -5.402930267e-18 0.02269851188)
(0.00018306388 1.081497448e-19 0.02268756297)
(0.0002357947428 1.411896883e-19 0.02267278892)
(0.0002902997682 1.402195963e-19 0.02265410213)
(0.000346793043 1.414257872e-19 0.02263138091)
(0.0004055684263 1.096627843e-19 0.02260447079)
(0.0004669597367 -5.3915966e-18 0.02257318281)
(0.0005313270604 1.139818265e-19 0.02253729038)
(0.000599051748 5.699954675e-18 0.02249652495)
(0.0006705347514 5.725748051e-18 0.02245057038)
(0.0007461963111 2.047615508e-19 0.02239905595)
(0.0008264761259 1.328093703e-19 0.02234154766)
(0.0009118334996 1.418215984e-19 0.02227753741)
(0.001002747148 1.421847141e-19 0.02220642965)
(0.001099714298 1.424287811e-19 0.02212752491)
(0.001203248563 1.426891885e-19 0.02203999932)
(0.001313876024 1.430579086e-19 0.02194287923)
(0.001432128567 1.432321934e-19 0.02183500971)
(0.00155853318 1.435672648e-19 0.02171501549)
(0.001693595287 1.439133069e-19 0.02158125236)
(0.001837773329 1.440851144e-19 0.02143174687)
(0.001991440422 1.441551471e-19 0.02126412185)
(0.00215482699 1.452102444e-19 0.02107550465)
(0.00232793532 1.454992558e-19 0.02086241488)
(0.002510413084 1.459825897e-19 0.02062062949)
(0.002701366748 1.46386363e-19 0.0203450239)
(0.002899087401 1.471737215e-19 0.02002939224)
(0.003100650808 1.480043612e-19 0.01966625704)
(0.003301339175 1.490759388e-19 0.01924669452)
(0.003493816401 1.49089361e-19 0.01876022861)
(0.003666973861 1.530871292e-19 0.018194894)
(0.003804357727 1.558932351e-19 0.01753765015)
(0.003882113913 -5.201005586e-18 0.0167754613)
(0.003866461667 -1.361717946e-19 0.01589757641)
(0.003711002235 1.904671826e-19 0.01489967641)
(0.003165800357 1.486724279e-19 0.01379025712)
(0.001304670051 1.430515449e-19 0.01557687023)
(-5.064217902e-05 9.860567984e-20 0.1080477284)
(4.632200644e-05 1.360229874e-19 0.02264216889)
(7.960009343e-05 1.00386032e-19 0.0226386607)
(0.0001254110422 -5.403078381e-18 0.02263093816)
(0.0001737784367 1.082510942e-19 0.022619137)
(0.0002238320939 1.416855722e-19 0.02260321572)
(0.0002755663729 1.394043451e-19 0.02258308276)
(0.0003291817861 1.405184249e-19 0.02255861079)
(0.0003849532682 1.077063044e-19 0.02252963827)
(0.0004431919971 -5.39129734e-18 0.02249596797)
(0.0005042319079 1.157937831e-19 0.02245736393)
(0.0005684243315 5.700124022e-18 0.02241354721)
(0.0006361356599 5.722047203e-18 0.02236419049)
(0.0007077461109 1.997580179e-19 0.02230891121)
(0.0007836487103 1.311740071e-19 0.02224726326)
(0.0008642479599 1.392590901e-19 0.02217872662)
(0.0009499577707 1.393827376e-19 0.02210269463)
(0.001041198254 1.393689284e-19 0.0220184585)
(0.001138390743 1.39309982e-19 0.02192518811)
(0.001241950323 1.393402904e-19 0.02182190859)
(0.001352274834 1.393247096e-19 0.02170747157)
(0.00146972881 1.393081988e-19 0.02158052003)
(0.001594620302 1.391829031e-19 0.02143944542)
(0.001727167606 1.392034557e-19 0.0212823354)
(0.001867451668 1.387246662e-19 0.02110691116)
(0.002015348199 1.390750943e-19 0.02091045257)
(0.002170430896 1.391333935e-19 0.02068971038)
(0.002331833944 1.391092131e-19 0.02044080616)
(0.002498057424 1.392134514e-19 0.02015912353)
(0.002666693124 1.391682193e-19 0.0198391992)
(0.002834041527 1.391631542e-19 0.01947463164)
(0.002994583126 1.39292667e-19 0.01905804154)
(0.003140261736 1.396391828e-19 0.01858114509)
(0.003259538312 1.434257963e-19 0.01803504286)
(0.003336188619 1.323468514e-19 0.01741089609)
(0.003347874099 -5.241106987e-18 0.01670126539)
(0.003264627929 -9.092033423e-20 0.01590254024)
(0.00304772602 1.710509079e-19 0.01501880185)
(0.002452824762 1.39922089e-19 0.01407435341)
(0.0006212530444 1.410213247e-19 0.01650846616)
(-0.0003634616464 1.372620367e-19 0.10982621)
(4.366621919e-05 1.358714e-19 0.02257901667)
(7.503678343e-05 1.001041603e-19 0.02257527011)
(0.0001182219869 -5.403188229e-18 0.02256701951)
(0.0001638172589 1.089771815e-19 0.02255441255)
(0.0002110017731 1.414884441e-19 0.02253740727)
(0.0002597689172 1.393943507e-19 0.02251590906)
(0.0003103054255 1.405766954e-19 0.02248978611)
(0.0003628668905 1.068051324e-19 0.02245887141)
(0.0004177413801 -5.392376806e-18 0.02242296144)
(0.0004752362443 1.192712967e-19 0.0223818133)
(0.0005356724561 5.702068756e-18 0.02233514071)
(0.0005993816611 5.720687148e-18 0.02228260881)
(0.0006667041032 1.967421288e-19 0.02222382776)
(0.0007379865165 1.318082548e-19 0.02215834489)
(0.0008135794445 1.392699262e-19 0.02208563499)
(0.0008938334902 1.393478162e-19 0.02200508861)
(0.0009790940622 1.392987391e-19 0.02191599771)
(0.001069693915 1.393729032e-19 0.02181753832)
(0.00116594265 1.392875083e-19 0.02170874946)
(0.001268112091 1.392849952e-19 0.02158850773)
(0.001376415934 1.392260932e-19 0.02145549682)
(0.001490981548 1.390940272e-19 0.02130817094)
(0.00161181097 1.39161257e-19 0.02114471158)
(0.001738727048 1.386123409e-19 0.0209629772)
(0.001871299273 1.388365245e-19 0.02076044571)
(0.002008741577 1.389510375e-19 0.02053415082)
(0.002149772023 1.388082491e-19 0.02028061519)
(0.002292421239 1.391255774e-19 0.0199957873)
(0.00243377261 1.386817609e-19 0.01967499415)
(0.002569613974 1.386516497e-19 0.01931293174)
(0.002693978332 1.386031878e-19 0.01890373023)
(0.002798553238 1.390904477e-19 0.01844115485)
(0.002871950301 1.420755775e-19 0.01791903756)
(0.002898853584 1.196385516e-19 0.01733208639)
(0.002859138225 -5.264829486e-18 0.0166772897)
(0.002727180186 -4.215143664e-20 0.01595621773)
(0.002471913927 1.620869973e-19 0.01517823152)
(0.001854990489 1.412282059e-19 0.01437812386)
(7.531441595e-05 1.383608606e-19 0.0173823795)
(-0.0006048431772 1.183107824e-19 0.1112589847)
(4.083972803e-05 1.358932934e-19 0.0225197232)
(7.018039419e-05 1.000378322e-19 0.02251575247)
(0.0001105720349 -5.403033569e-18 0.02250700523)
(0.0001532192697 1.092980771e-19 0.02249364075)
(0.0001973544015 1.407401462e-19 0.02247561713)
(0.0002429705094 1.387413382e-19 0.02245283754)
(0.0002902405389 1.398693754e-19 0.0224251669)
(0.0003394005571 1.048822236e-19 0.02239243424)
(0.00039071534 -5.394573212e-18 0.02235443164)
(0.0004444655523 1.217264827e-19 0.0223109116)
(0.0005009418739 5.702905911e-18 0.02226158335)
(0.000560441521 5.717014649e-18 0.02220610802)
(0.0006232654118 1.91885267e-19 0.02214409276)
(0.0006897150945 1.306865345e-19 0.02207508347)
(0.0007600888879 1.371449171e-19 0.02199855611)
(0.0008346766642 1.37042007e-19 0.02191390601)
(0.0009137528348 1.367986095e-19 0.02182043511)
(0.0009975668307 1.39359347e-19 0.02171733671)
(0.001086330153 1.362498808e-19 0.0216036771)
(0.001180198891 1.359602167e-19 0.02147837396)
(0.001279250137 1.357226288e-19 0.02134017078)
(0.001383450226 1.353981018e-19 0.02118760717)
(0.001492612039 1.351122172e-19 0.02101898481)
(0.001606337687 1.350528232e-19 0.02083232955)
(0.001723941773 1.344064622e-19 0.02062535067)
(0.001844348833 1.340499422e-19 0.02039539982)
(0.00196595678 1.337039183e-19 0.0201394342)
(0.00208645665 1.331695937e-19 0.01985399283)
(0.00220259705 1.332993469e-19 0.01953519992)
(0.002309881191 1.330500526e-19 0.01917881868)
(0.002402186157 1.328913808e-19 0.01878039125)
(0.002471301087 1.328514374e-19 0.0183355207)
(0.002506399539 1.381221893e-19 0.01784037551)
(0.002493493519 9.724668562e-20 0.01729253164)
(0.00241499256 -5.275255858e-18 0.01669230577)
(0.002249616428 -9.390147789e-21 0.01604475481)
(0.001973200138 1.516695841e-19 0.01536204544)
(0.001352693191 1.358057e-19 0.01468549542)
(-0.0003645941839 1.391553284e-19 0.01818925364)
(-0.0007933449837 1.189203122e-19 0.112431323)
(3.78531314e-05 1.359587954e-19 0.02246452139)
(6.504917344e-05 9.952541437e-20 0.02246034111)
(0.000102490048 -5.40347007e-18 0.02245112958)
(0.0001420247029 1.104779004e-19 0.02243705729)
(0.000182942245 1.410895062e-19 0.02241808285)
(0.0002252362115 1.394342691e-19 0.02239410804)
(0.0002690659244 1.407997919e-19 0.0223649956)
(0.0003146479611 1.047929281e-19 0.02233057206)
(0.0003622238802 -5.394598267e-18 0.02229062686)
(0.0004120478731 1.268743222e-19 0.02224491009)
(0.0004643807752 5.706730869e-18 0.02219312916)
(0.0005194861389 5.71662856e-18 0.02213494444)
(0.000577626752 1.90431865e-19 0.02206996396)
(0.0006390607367 1.333613957e-19 0.02199773699)
(0.0007040366719 1.393270145e-19 0.02191774626)
(0.0007727871892 1.394012404e-19 0.02182939874)
(0.0008455205124 1.393981595e-19 0.0217320145)
(0.0009224092939 1.393818171e-19 0.02162481375)
(0.001003575798 1.393928821e-19 0.02150690159)
(0.001089072327 1.394671713e-19 0.02137725019)
(0.001178855441 1.393588112e-19 0.02123467854)
(0.001272752032 1.393154933e-19 0.02107782954)
(0.00137041479 1.393573634e-19 0.02090514507)
(0.001471263836 1.397227231e-19 0.02071483994)
(0.001574410558 1.391243045e-19 0.02050487671)
(0.001678558662 1.392343371e-19 0.02027294473)
(0.001781876316 1.392428402e-19 0.02001644929)
(0.001881832886 1.394592701e-19 0.01973252007)
(0.001974993427 1.390490826e-19 0.01941805388)
(0.002056765741 1.390312115e-19 0.01906981374)
(0.002121099169 1.39012434e-19 0.01868461673)
(0.002160143739 1.395634187e-19 0.01825965801)
(0.002163899885 1.449994316e-19 0.01779303402)
(0.002119920334 9.145329247e-20 0.0172845471)
(0.002013193657 -5.296658311e-18 0.01673688562)
(0.001826439983 3.037800279e-20 0.01615724648)
(0.001541242538 1.51983767e-19 0.01555887378)
(0.0009280073247 1.39715065e-19 0.01498729005)
(-0.0007209390653 1.391413949e-19 0.01892554828)
(-0.0009400143977 1.178659414e-19 0.1134052529)
(3.471731014e-05 1.360694335e-19 0.02241362905)
(5.96618476e-05 9.940362679e-20 0.02240925413)
(9.400562017e-05 -5.403302712e-18 0.02239961136)
(0.0001302747713 1.112406215e-19 0.02238488202)
(0.0001678187721 1.404281046e-19 0.02236502563)
(0.0002066324802 1.394505569e-19 0.02233994334)
(0.0002468619082 1.409354525e-19 0.02230949676)
(0.0002887043738 1.035962421e-19 0.0222735112)
(0.0003323785306 -5.396657606e-18 0.02223177511)
(0.0003781125988 1.309259101e-19 0.02218403818)
(0.0004261383403 5.708939703e-18 0.0221300084)
(0.0004766868074 5.714525697e-18 0.0220693483)
(0.0005299843221 1.87145575e-19 0.02200167035)
(0.0005862478895 1.341510005e-19 0.02192653132)
(0.0006456794989 1.393290087e-19 0.02184342576)
(0.0007084587851 1.394063593e-19 0.02175177811)
(0.0007747334616 1.394030975e-19 0.02165093356)
(0.000844606928 1.39378724e-19 0.02154014738)