/*--------------------------------*- C++ -*----------------------------------*\
| =========                 |                                                 |
| \\      /  F ield         | OpenFOAM: The Open Source CFD Toolbox           |
|  \\    /   O peration     | Version:  v1912                                 |
|   \\  /    A nd           | Website:  www.openfoam.com                      |
|    \\/     M anipulation  |                                                 |
\*---------------------------------------------------------------------------*/
FoamFile
{
    version     2.0;
    format      ascii;
    class       volVectorField;
    location    "0.2";
    object      U.liquid_0;
}
// * * * * * * * * * * * * * * * * * * * * * * * * * * * * * * * * * * * * * //

dimensions      [0 1 -1 0 0 0 0];


internalField   nonuniform List<vector> 
4800
(
(5.794861068e-05 1.328798574e-19 -4.093246479e-05)
(9.960407613e-05 1.012566299e-19 -4.110705542e-05)
(0.0001569645456 -5.241226645e-18 -4.146357294e-05)
(0.0002175642053 1.034094829e-19 -4.200795446e-05)
(0.0002803379425 1.382943028e-19 -4.274303441e-05)
(0.0003453072526 1.359456326e-19 -4.367407554e-05)
(0.0004127602929 1.367075503e-19 -4.480821472e-05)
(0.0004830896042 1.120514425e-19 -4.615451954e-05)
(0.0005567477214 -5.228322555e-18 -4.772416576e-05)
(0.0006342345141 9.44240679e-20 -4.953070348e-05)
(0.0007160957667 5.520820213e-18 -5.159040725e-05)
(0.0008029269111 5.562529395e-18 -5.392273324e-05)
(0.0008953799281 2.077920253e-19 -5.655089789e-05)
(0.0009941728562 1.240908815e-19 -5.95026127e-05)
(0.001100101959 1.356570651e-19 -6.281102148e-05)
(0.001214056986 1.359038757e-19 -6.651590164e-05)
(0.001337040217 1.358798128e-19 -7.066520712e-05)
(0.001470190353 1.400240711e-19 -7.531707358e-05)
(0.001614812617 1.359648224e-19 -8.054242685e-05)
(0.001772417035 1.358172517e-19 -8.642841976e-05)
(0.001944767567 1.358803926e-19 -9.30830211e-05)
(0.002133945773 1.358262249e-19 -0.0001006411586)
(0.002342434239 1.357260619e-19 -0.0001092731064)
(0.00257322728 1.356331097e-19 -0.0001191960939)
(0.002829979733 1.358372413e-19 -0.0001306905281)
(0.003117209925 1.353822691e-19 -0.0001441232151)
(0.003440581281 1.352926848e-19 -0.0001599811487)
(0.003807300226 1.358215345e-19 -0.0001789217696)
(0.00422669052 1.357200601e-19 -0.0002018496786)
(0.004711042604 1.356789756e-19 -0.0002300370707)
(0.005276905276 1.35755412e-19 -0.0002653191796)
(0.005947115824 1.343337314e-19 -0.0003104239851)
(0.006754117999 1.365734596e-19 -0.0003695545905)
(0.007745648936 2.639359918e-19 -0.0004494775033)
(0.008995082869 -4.738838921e-18 -0.0005617038373)
(0.01062180961 -8.490693845e-19 -0.000727319612)
(0.01283733296 2.155721939e-19 -0.000990012079)
(0.01608059766 1.820979623e-19 -0.001464520896)
(0.02256095015 1.496851046e-19 -0.003245723796)
(0.01333013941 1.367730697e-19 0.009088548557)
(5.790326333e-05 1.353180918e-19 -0.0001227642639)
(9.950170793e-05 1.015725059e-19 -0.0001232715531)
(0.0001567907836 -5.330539873e-18 -0.0001243430673)
(0.0002173248422 1.039438452e-19 -0.0001259787137)
(0.0002800396939 1.414782995e-19 -0.0001281872994)
(0.0003449585075 1.383967772e-19 -0.0001309845797)
(0.000412371138 1.391341174e-19 -0.0001343919442)
(0.000482671797 1.112339174e-19 -0.0001384365695)
(0.0005563146272 -5.316877514e-18 -0.0001431519479)
(0.0006338010031 9.697255114e-20 -0.0001485786786)
(0.0007156780607 5.615440897e-18 -0.0001547655146)
(0.0008025423637 5.656904329e-18 -0.0001617707232)
(0.0008950467072 2.141239517e-19 -0.0001696638093)
(0.0009939094972 1.263833314e-19 -0.0001785277098)
(0.001099926749 1.380332835e-19 -0.000188461581)
(0.001213987102 1.38295382e-19 -0.0001995843775)
(0.001337090554 1.382702107e-19 -0.0002120394447)
(0.001470371883 1.382653009e-19 -0.0002260004721)
(0.001615130126 1.382523386e-19 -0.000241679245)
(0.001772865966 1.381392762e-19 -0.000259335852)
(0.001945329594 1.381374265e-19 -0.0002792922628)
(0.002134582535 1.381414797e-19 -0.0003019505367)
(0.002343078414 1.381591783e-19 -0.0003278176108)
(0.002573769643 1.379640251e-19 -0.0003575395185)
(0.002830250197 1.378225725e-19 -0.0003919492133)
(0.003116949313 1.382113612e-19 -0.0004321347475)
(0.003439398382 1.379517067e-19 -0.0004795382275)
(0.003804605126 1.37649786e-19 -0.000536102545)
(0.004221588288 1.379921561e-19 -0.0006044942876)
(0.004702158564 1.383198166e-19 -0.000688451852)
(0.005262087129 1.389909109e-19 -0.0007933463465)
(0.005922902601 1.380474364e-19 -0.0009271188529)
(0.006714739856 1.372371709e-19 -0.001101914128)
(0.00768100565 2.610921932e-19 -0.001337073959)
(0.008886268275 -4.79900773e-18 -0.001664957413)
(0.01042979832 -8.347614337e-19 -0.002143125923)
(0.01246511991 2.160347999e-19 -0.00288220532)
(0.01517162227 1.854857888e-19 -0.004108828071)
(0.01889943272 1.193128384e-19 -0.00813353003)
(0.01039234181 1.189474272e-19 0.02544562301)
(5.742968887e-05 1.347405434e-19 -0.0002042286374)
(9.869063184e-05 1.011175347e-19 -0.0002050526667)
(0.0001555123414 -5.331094025e-18 -0.0002068367504)
(0.0002155501275 1.041650729e-19 -0.0002095609048)
(0.0002777492054 1.414904824e-19 -0.0002132393968)
(0.0003421319329 1.383599694e-19 -0.0002178981923)
(0.0004089847623 1.391696151e-19 -0.0002235726964)
(0.0004786972641 1.112485404e-19 -0.0002303079214)
(0.0005517179753 -5.316287468e-18 -0.0002381593327)
(0.000628541665 9.763373305e-20 -0.0002471941391)
(0.0007097076953 5.616478972e-18 -0.0002574930156)
(0.0007958034247 5.657173048e-18 -0.0002691523243)
(0.0008874706553 2.133742701e-19 -0.00028228694)
(0.0009854145437 1.265073802e-19 -0.0002970338477)
(0.00109041499 1.381008134e-19 -0.0003135566973)
(0.001203340853 1.383136155e-19 -0.0003320516497)
(0.001325167618 1.383034976e-19 -0.0003527548748)
(0.001456999403 1.342249805e-19 -0.0003759522406)
(0.001600096542 1.381779196e-19 -0.0004019919228)
(0.001755910371 1.384062216e-19 -0.0004313009719)
(0.001926127495 1.383389784e-19 -0.0004644072835)
(0.002112726619 1.379318734e-19 -0.0005019690147)
(0.002318052158 1.378297911e-19 -0.0005448144744)
(0.002544910622 1.376264298e-19 -0.0005939969827)
(0.002796698222 1.381962573e-19 -0.0006508712873)
(0.003077571709 1.379183467e-19 -0.0007172018479)
(0.003392680147 1.376755408e-19 -0.0007953191122)
(0.00374848362 1.380229909e-19 -0.0008883495541)
(0.004153197653 1.382701941e-19 -0.00100056189)
(0.004617422177 1.375784423e-19 -0.001137901583)
(0.005155044093 1.376704245e-19 -0.00130883927)
(0.005784546869 1.369598131e-19 -0.00152576034)
(0.006530917078 1.426122164e-19 -0.001807320807)
(0.007428371501 2.490379507e-19 -0.002182593661)
(0.008523964021 -4.832686395e-18 -0.00269865282)
(0.00988102696 -7.750726849e-19 -0.003434918984)
(0.01157755013 2.252317486e-19 -0.004529790381)
(0.01369105501 1.553633806e-19 -0.006203389449)
(0.01580300286 1.551887551e-19 -0.01055467625)
(0.008262843062 1.280294799e-19 0.03854401723)
(5.672250757e-05 1.34920619e-19 -0.0002848592254)
(9.747674385e-05 1.014028275e-19 -0.0002859995093)
(0.0001535994368 -5.330455192e-18 -0.0002884867361)
(0.0002128966444 1.043806377e-19 -0.0002922865317)
(0.0002743259701 1.406631533e-19 -0.0002974176674)
(0.0003379084418 1.383820563e-19 -0.0003039158399)
(0.0004039254541 1.391600464e-19 -0.000311829971)
(0.0004727596854 1.110167621e-19 -0.0003212223009)
(0.0005448513411 -5.316392535e-18 -0.0003321695068)
(0.0006206853739 9.860300613e-20 -0.0003447644493)
(0.0007007896017 5.616939353e-18 -0.0003591185201)
(0.0007857377256 5.656542811e-18 -0.0003753646577)
(0.0008761552585 2.123952916e-19 -0.0003936611948)
(0.0009727277531 1.267560755e-19 -0.0004141967447)
(0.001076211298 1.381043126e-19 -0.0004371963814)
(0.001187445567 1.383357996e-19 -0.0004629295483)
(0.001307369946 1.383015515e-19 -0.0004917201941)
(0.001437043487 1.382534846e-19 -0.0005239598272)
(0.001577669734 1.382789564e-19 -0.0005601244719)
(0.001730627778 1.384110115e-19 -0.00060079687)
(0.001897511382 1.38521024e-19 -0.0006466958119)
(0.002080178629 1.378825694e-19 -0.0006987152624)
(0.002280815425 1.382012171e-19 -0.000757977145)
(0.002502017289 1.378969459e-19 -0.0008259035255)
(0.002746895656 1.380336497e-19 -0.0009043165378)
(0.003019216994 1.380549237e-19 -0.0009955788152)
(0.00332358619 1.37986356e-19 -0.001102794288)
(0.003665689822 1.383056349e-19 -0.0012301004)
(0.004052619897 1.37877434e-19 -0.001383101701)
(0.004493304032 1.385006715e-19 -0.001569527417)
(0.004999070267 1.384479581e-19 -0.001800251667)
(0.005584363423 1.361487753e-19 -0.00209091484)
(0.006267575454 1.383118812e-19 -0.002464562976)
(0.007071770096 2.429954782e-19 -0.002956038618)
(0.008024563291 -4.835477234e-18 -0.003619393293)
(0.009155144152 -6.914025589e-19 -0.00454038573)
(0.01048441009 2.219259578e-19 -0.00585679155)
(0.01201930211 1.5182794e-19 -0.007780769764)
(0.01313188433 1.527134101e-19 -0.011648044)
(0.006629626107 1.348912213e-19 0.04914000845)
(5.57851794e-05 1.347056576e-19 -0.0003643282386)
(9.586594809e-05 1.010251012e-19 -0.0003657811563)
(0.0001510602391 -5.330861673e-18 -0.0003689600579)
(0.000209374542 1.045623683e-19 -0.0003738179562)
(0.0002697826073 1.414013384e-19 -0.0003803778697)
(0.0003323036721 1.383611671e-19 -0.0003886847348)
(0.0003972124905 1.391995876e-19 -0.0003988003474)
(0.0004648827143 1.10759906e-19 -0.0004108033569)
(0.0005357436512 -5.315125919e-18 -0.0004247906133)
(0.0006102674288 9.989075598e-20 -0.0004408793212)
(0.0006889668018 5.617517224e-18 -0.000459209943)
(0.0007723976831 5.655908584e-18 -0.0004799499253)
(0.0008611644042 2.112600394e-19 -0.0005032984536)
(0.0009559270689 1.270797781e-19 -0.0005294924784)
(0.001057410916 1.381285023e-19 -0.0005588143302)
(0.001166417884 1.383148131e-19 -0.0005916014186)
(0.001283840786 1.383094489e-19 -0.0006282586497)
(0.001410680682 1.383094825e-19 -0.0006692743575)
(0.001548068246 1.382639534e-19 -0.0007152409276)
(0.001697290145 1.381852808e-19 -0.0007668816895)
(0.001859821771 1.382628709e-19 -0.0008250862609)
(0.00203736806 1.380773741e-19 -0.0008909574488)
(0.002231914579 1.380217382e-19 -0.0009658741057)
(0.002445791658 1.380317466e-19 -0.001051576403)
(0.00268175512 1.379546235e-19 -0.001150282897)
(0.00294308781 1.379896354e-19 -0.001264853283)
(0.003233726641 1.379398321e-19 -0.001399018097)
(0.003558419737 1.382254888e-19 -0.001557707973)
(0.003922915827 1.383170065e-19 -0.001747533013)
(0.004334180446 1.38088714e-19 -0.001977492776)
(0.004800613062 1.373437667e-19 -0.002260045388)
(0.005332189184 1.381996477e-19 -0.002612742539)
(0.005940335715 1.383612913e-19 -0.003060760711)
(0.006637088875 2.304407942e-19 -0.00364084354)
(0.007432547495 -4.918677705e-18 -0.004407411217)
(0.008328647468 -6.044420815e-19 -0.005441840046)
(0.00930563265 2.250220122e-19 -0.006866129751)
(0.01030265408 1.605393443e-19 -0.008870164718)
(0.01061990058 1.278736464e-19 -0.01193297235)
(0.005161360779 1.392762226e-19 0.0577267615)
(5.462117441e-05 1.349221873e-19 -0.000442312965)
(9.386519595e-05 1.010751312e-19 -0.0004440723778)
(0.0001479062278 -5.330771419e-18 -0.0004479286471)
(0.0002049999501 1.049409124e-19 -0.0004538225535)
(0.0002641402218 1.405394637e-19 -0.0004617810735)
(0.0003253441451 1.383900798e-19 -0.0004718578154)
(0.0003888783735 1.392256651e-19 -0.0004841266678)
(0.0004551055458 1.104060168e-19 -0.0004986816759)
(0.0005244416883 -5.316989401e-18 -0.0005156385765)
(0.0005973433255 1.014431782e-19 -0.0005351372955)
(0.0006743049202 5.617951341e-18 -0.0005573453257)
(0.0007558608264 5.654874222e-18 -0.0005824620654)
(0.0008425897642 2.098957587e-19 -0.0006107243348)
(0.000935121141 1.274127775e-19 -0.0006424133664)
(0.001034143075 1.381149491e-19 -0.0006778636212)
(0.001140412223 1.383346284e-19 -0.0007174739537)
(0.001254765679 1.383247463e-19 -0.0007617218877)
(0.001378135348 1.382799313e-19 -0.0008111818454)
(0.001511565318 1.382832668e-19 -0.0008665486364)
(0.001656232886 1.382238911e-19 -0.0009286679265)
(0.001813474019 1.382574496e-19 -0.0009985760535)
(0.001984814211 1.380686262e-19 -0.001077552474)
(0.002172005735 1.382392306e-19 -0.00116718948)
(0.002377072324 1.380097411e-19 -0.001269485859)
(0.002602362159 1.378656001e-19 -0.001386974074)
(0.002850609327 1.38077564e-19 -0.00152289473)
(0.003125002082 1.380866952e-19 -0.001681438829)
(0.003429252564 1.383102745e-19 -0.001868088443)
(0.003767654388 1.377663464e-19 -0.002090101151)
(0.00414509783 1.380082285e-19 -0.002357206889)
(0.004566978669 1.386054931e-19 -0.002682619748)
(0.005038869054 1.384420929e-19 -0.003084515625)
(0.005565688023 1.383272476e-19 -0.003588189264)
(0.006149863673 2.145294782e-19 -0.004229170344)
(0.006787547435 -4.941774469e-18 -0.005057612499)
(0.007461236302 -5.095177938e-19 -0.006144213655)
(0.008125948085 2.16898468e-19 -0.007587621197)
(0.008687886005 1.585901142e-19 -0.009538281983)
(0.008428337415 1.411589446e-19 -0.0116365077)
(0.003921818649 1.340019818e-19 0.06457387011)
(5.323547399e-05 1.34979725e-19 -0.0005184966898)
(9.14833445e-05 1.008249256e-19 -0.0005205548443)
(0.0001441516022 -5.330752243e-18 -0.0005250713528)
(0.000199792795 1.054045422e-19 -0.0005319748296)
(0.0002574248861 1.404682031e-19 -0.0005412958267)
(0.0003170626154 1.383440507e-19 -0.0005530959659)
(0.0003789632219 1.392378552e-19 -0.0005674603213)
(0.0004434765257 1.100042037e-19 -0.0005844971526)
(0.0005110031118 -5.317444183e-18 -0.0006043395806)
(0.000581981398 1.034275117e-19 -0.0006271483584)
(0.000656884669 5.619085113e-18 -0.0006531156314)
(0.0007362223827 5.653511176e-18 -0.0006824697746)
(0.0008205437671 2.081305595e-19 -0.000715481511)
(0.0009104429853 1.278208644e-19 -0.0007524716598)
(0.001006565672 1.381574947e-19 -0.0007938208921)
(0.001109616834 1.383509141e-19 -0.000839982008)
(0.001220370241 1.383403952e-19 -0.0008914955907)
(0.001339679521 1.383308824e-19 -0.0009490098968)
(0.001468491196 1.383310707e-19 -0.001013306342)
(0.001607859946 1.382213403e-19 -0.001085332339)
(0.001758966308 1.381714849e-19 -0.001166243919)
(0.001923137032 1.38045096e-19 -0.001257461402)
(0.002101867964 1.381104149e-19 -0.001360742623)
(0.002296848798 1.381585578e-19 -0.001478280187)
(0.002509988213 1.380293313e-19 -0.00161283178)
(0.002743435964 1.380273501e-19 -0.001767896023)
(0.002999595004 1.379590033e-19 -0.001947951991)
(0.003281110492 1.383840017e-19 -0.002158788234)
(0.003590810805 1.381487861e-19 -0.002407957619)
(0.003931554568 1.387825531e-19 -0.00270540903)
(0.004305899652 1.383818589e-19 -0.003064365457)
(0.004715442018 1.377699172e-19 -0.003502537469)
(0.005159555537 1.38594999e-19 -0.00404377318)
(0.005633070037 2.018210651e-19 -0.00472022813)
(0.006122121062 -5.001974267e-18 -0.005575047634)
(0.006596939529 -4.223882486e-19 -0.006665315936)
(0.00699959992 2.110700282e-19 -0.008064350388)
(0.007226969464 1.474900083e-19 -0.009881821096)
(0.006608445704 1.407088374e-19 -0.01096780238)
(0.002938962631 1.328901249e-19 0.06998895398)
(5.16340948e-05 1.349229979e-19 -0.0005925704705)
(8.873086145e-05 1.010539822e-19 -0.0005949183223)
(0.0001398130332 -5.330344712e-18 -0.0006000752883)
(0.000193776458 1.058134051e-19 -0.0006079578349)
(0.0002496671865 1.403922205e-19 -0.0006185996328)
(0.0003074974894 1.383616136e-19 -0.0006320695764)
(0.0003675140414 1.392669322e-19 -0.000648462911)
(0.0004300522431 1.095069703e-19 -0.0006679007896)
(0.0004954953319 -5.317997397e-18 -0.0006905320339)
(0.0005642614278 1.055241804e-19 -0.0007165361089)
(0.0006368001408 5.620507143e-18 -0.0007461271617)
(0.0007135931817 5.652458663e-18 -0.0007795592312)
(0.0007951570166 2.061746388e-19 -0.0008171328041)
(0.0008820468016 1.283034547e-19 -0.0008592030943)
(0.0009748613271 1.381538571e-19 -0.0009061904569)
(0.001074248881 1.383477996e-19 -0.0009585934052)
(0.001180914001 1.383220807e-19 -0.001017005138)
(0.001295625136 1.418920934e-19 -0.001082134428)
(0.001419223208 1.383520039e-19 -0.001154832213)
(0.001552630971 1.382560101e-19 -0.001236125585)
(0.001696862883 1.38184241e-19 -0.001327261531)
(0.001853034949 1.381605506e-19 -0.001429763536)
(0.002022373513 1.381128215e-19 -0.00154550513)
(0.00220622087 1.38103593e-19 -0.001676806194)
(0.00240603419 1.380257241e-19 -0.001826560009)
(0.00262337166 1.380816136e-19 -0.001998401417)
(0.002859855029 1.382286498e-19 -0.002196930646)
(0.003117090337 1.38381135e-19 -0.002428012305)
(0.00339651566 1.381390532e-19 -0.002699174939)
(0.003699122927 1.378815945e-19 -0.003020142848)
(0.004024965371 1.389648385e-19 -0.003403536756)
(0.004372303851 1.367055258e-19 -0.003865776531)
(0.004736155489 1.392428726e-19 -0.004428196533)
(0.005105875041 1.850075401e-19 -0.005118316464)
(0.00546121385 -5.015767198e-18 -0.005971054273)
(0.005766047563 -3.3699978e-19 -0.007029331117)
(0.005958595588 2.009533318e-19 -0.008342660356)
(0.005934993009 1.424923226e-19 -0.009982780156)
(0.005113777858 1.398727623e-19 -0.01010457105)
(0.002167920072 1.215917354e-19 0.07426157522)
(4.982394073e-05 1.350208471e-19 -0.0006642344918)
(8.56196884e-05 1.004604239e-19 -0.0006668618824)
(0.0001349094933 -5.330802459e-18 -0.0006726370875)
(0.0001869775264 1.062684199e-19 -0.0006814644696)
(0.000240901883 1.409462944e-19 -0.00069338031)
(0.0002966923803 1.383665297e-19 -0.0007084599704)
(0.000354584159 1.393130461e-19 -0.0007268077672)
(0.000414896824 1.089324732e-19 -0.0007485563159)
(0.0004779946322 -5.317345456e-18 -0.0007738683203)
(0.0005442735532 1.080077786e-19 -0.0008029396717)
(0.0006141574478 5.621699158e-18 -0.0008360036658)
(0.0006880979578 5.651268955e-18 -0.0008733364444)
(0.0007665761776 2.039867429e-19 -0.0009152638238)
(0.000850105323 1.287955894e-19 -0.0009621698771)
(0.0009392340465 1.381911796e-19 -0.001014507708)
(0.001034550214 1.383413642e-19 -0.001072812843)
(0.001136684991 1.383209997e-19 -0.00113772011)
(0.001246317062 1.382761261e-19 -0.001209984887)
(0.001364176743 1.382527693e-19 -0.001290509909)
(0.001491049552 1.381959041e-19 -0.001380379249)
(0.001627778529 1.381101677e-19 -0.001480901596)
(0.001775264135 1.380550955e-19 -0.001593665658)
(0.001934459867 1.380864686e-19 -0.001720611142)
(0.002106360501 1.381192399e-19 -0.00186412019)
(0.002291977903 1.380016228e-19 -0.002027135753)
(0.002492296494 1.379832695e-19 -0.002213314804)
(0.002708195404 1.382368358e-19 -0.002427226687)
(0.002940316574 1.382606236e-19 -0.002674609313)
(0.003188845818 1.381177222e-19 -0.002962697595)
(0.003453154353 1.379964887e-19 -0.003300637718)
(0.00373121899 1.380482913e-19 -0.003699995495)
(0.004018695358 1.383752965e-19 -0.004175348373)
(0.00430745828 1.394634012e-19 -0.004744908271)
(0.004583346005 1.716487648e-19 -0.005431031545)
(0.004822759215 -5.085708882e-18 -0.006260295208)
(0.004987708132 -2.617663777e-19 -0.007262471732)
(0.005019110763 1.929815837e-19 -0.008466988188)
(0.00482226702 1.438350671e-19 -0.009910540077)
(0.003894358951 1.371657178e-19 -0.009156981039)
(0.001556429712 1.270906865e-19 0.07763080511)
(4.781270371e-05 1.350908382e-19 -0.0007331992483)
(8.21631021e-05 1.003033014e-19 -0.0007360950382)
(0.0001294620514 -5.330802075e-18 -0.0007424640666)
(0.0001794255027 1.068503938e-19 -0.0007521986768)
(0.0002311675158 1.408337182e-19 -0.0007653372289)
(0.0002846955996 1.383820046e-19 -0.0007819606961)
(0.0003402325793 1.393714828e-19 -0.0008021813061)
(0.0003980811227 1.083161439e-19 -0.0008261416312)
(0.0004585851653 -5.31817486e-18 -0.0008540163429)
(0.0005221170319 1.107070718e-19 -0.0008860153626)
(0.0005890731973 5.623196229e-18 -0.0009223881495)
(0.0006598734555 5.650078616e-18 -0.0009634292333)
(0.0007349616089 2.016545288e-19 -0.001009485153)
(0.0008148068683 1.294082458e-19 -0.001060963112)
(0.000899905537 1.382736418e-19 -0.00111834182)
(0.0009907827418 1.383999114e-19 -0.001182184903)
(0.001087993911 1.383921218e-19 -0.001253157651)
(0.001192125667 1.383564869e-19 -0.00133204799)
(0.001303795688 1.383160066e-19 -0.001419792694)
(0.001423650831 1.383485394e-19 -0.001517510301)
(0.00155236247 1.383636034e-19 -0.001626542533)
(0.001690617378 1.383083381e-19 -0.001748506615)
(0.001839101726 1.382957451e-19 -0.001885361277)
(0.001998474407 1.386463409e-19 -0.002039490186)
(0.002169323717 1.382662772e-19 -0.002213807482)
(0.002352098605 1.383219587e-19 -0.002411890871)
(0.002547000751 1.383787099e-19 -0.002638148173)
(0.002753816637 1.387447777e-19 -0.002898023614)
(0.002971658216 1.387118246e-19 -0.003198248346)
(0.00319856512 1.384597654e-19 -0.003547133997)
(0.00343090005 1.384943154e-19 -0.003954895653)
(0.00366244016 1.396007581e-19 -0.004433964222)
(0.003883033451 1.407599088e-19 -0.004999197364)
(0.004076656896 1.593772583e-19 -0.005667803774)
(0.004218698646 -5.120027837e-18 -0.006458627924)
(0.00427233467 -1.912147683e-19 -0.007390146382)
(0.004184190565 1.829603259e-19 -0.008476098142)
(0.003874286912 1.433351375e-19 -0.009724486777)
(0.002904388331 1.366499579e-19 -0.008182694861)
(0.001072393161 1.040332412e-19 0.08029085915)
(4.56087708e-05 1.347275035e-19 -0.0007991865918)
(7.837556896e-05 1.001850203e-19 -0.0008023387833)
(0.0001234936491 -5.330893317e-18 -0.000809275271)
(0.0001711524908 1.079699687e-19 -0.000819876516)
(0.0002205059868 1.400608898e-19 -0.0008341824131)
(0.0002715596135 1.391495274e-19 -0.0008522786664)
(0.0003245232934 1.403488935e-19 -0.0008742842183)
(0.0003796818618 1.086760199e-19 -0.0009003500498)
(0.0004373578911 -5.320278566e-18 -0.0009306608398)
(0.00049789893 1.150490674e-19 -0.0009654380839)
(0.0005616728744 5.626492608e-18 -0.001004944361)
(0.0006290664459 5.650060186e-18 -0.001049488817)
(0.0007004849201 2.010836368e-19 -0.00109943405)
(0.0007763522911 1.321593092e-19 -0.001155204627)
(0.0008571113923 1.4066309e-19 -0.001217297706)
(0.0009432236533 1.41003868e-19 -0.001286296145)
(0.001035168118 1.412457099e-19 -0.001362884657)
(0.00113343924 1.414898804e-19 -0.001447869945)
(0.001238542823 1.418434542e-19 -0.001542205603)
(0.001350989238 1.419931519e-19 -0.001647023029)
(0.001471282559 1.423051009e-19 -0.001763669826)
(0.001599903664 1.426390893e-19 -0.001893757519)
(0.00173728452 1.428390423e-19 -0.002039220738)
(0.001883769498 1.428595148e-19 -0.002202390304)
(0.002039557392 1.438901111e-19 -0.002386083196)
(0.002204615245 1.441342424e-19 -0.002593712397)
(0.002378550746 1.44595567e-19 -0.002829418611)
(0.002560423947 1.449009428e-19 -0.003098224536)
(0.002748470886 1.457526239e-19 -0.003406208175)
(0.002939700447 1.465729049e-19 -0.003760683149)
(0.003129312379 1.475217761e-19 -0.004170357774)
(0.003309869012 1.476473252e-19 -0.004645415901)
(0.003470141005 1.515530812e-19 -0.005197412078)
(0.003593548347 1.521396633e-19 -0.005838788061)
(0.003656151959 -5.137928717e-18 -0.006581676827)
(0.003624264506 -1.241522155e-19 -0.007435434276)
(0.003452103295 1.868247279e-19 -0.008402193275)
(0.003075403461 1.47428462e-19 -0.009469105977)
(0.002116887892 1.443192503e-19 -0.007224618375)
(0.0007017298984 1.01795632e-19 0.0823937648)
(4.322114195e-05 1.35080874e-19 -0.0008619306558)
(7.427260389e-05 9.982869409e-20 -0.0008653265109)
(0.0001170288728 -5.331032292e-18 -0.0008728024036)
(0.000162192867 1.080806259e-19 -0.0008842271045)
(0.0002089621216 1.405224754e-19 -0.0008996414996)
(0.0002573404802 1.383870785e-19 -0.0009191351411)
(0.0003075245739 1.395020458e-19 -0.0009428324769)
(0.0003597807519 1.068071475e-19 -0.0009708913409)
(0.0004144094767 -5.320021569e-18 -0.001003504456)
(0.0004717327567 1.168367325e-19 -0.001040902436)
(0.0005320891656 5.626706929e-18 -0.001083357944)
(0.0005958316686 5.646540586e-18 -0.001131191006)
(0.0006633264442 1.963235022e-19 -0.001184775668)
(0.0007349518842 1.306305617e-19 -0.001244548202)
(0.0008110972605 1.38254e-19 -0.001311017238)
(0.0008921606477 1.383593324e-19 -0.001384776261)
(0.0009785456792 1.38357804e-19 -0.001466518808)
(0.001070656546 1.383174145e-19 -0.001557057244)
(0.001168890485 1.383385474e-19 -0.001657345775)
(0.00127362672 1.383252931e-19 -0.00176850859)
(0.001385210381 1.383032041e-19 -0.001891874318)
(0.001503929246 1.381839928e-19 -0.002029018049)
(0.001629980378 1.381740578e-19 -0.002181812377)
(0.001763422466 1.377247702e-19 -0.002352488727)
(0.001904107732 1.380711926e-19 -0.002543710295)
(0.002051584939 1.381277633e-19 -0.002758657426)
(0.002204961632 1.381051944e-19 -0.00300112427)
(0.002362709123 1.381762974e-19 -0.003275622898)
(0.002522388129 1.381411728e-19 -0.003587485613)
(0.002680265831 1.381119325e-19 -0.003942946408)
(0.002830788759 1.38302244e-19 -0.004349165436)
(0.002965871378 1.386379095e-19 -0.004814132888)
(0.003073963758 1.424435155e-19 -0.005346344366)
(0.003138884931 1.29548628e-19 -0.00595407025)
(0.003138472031 -5.176097613e-18 -0.006643936411)
(0.003043244134 -8.019806817e-20 -0.007418385514)
(0.002815657591 1.683739054e-19 -0.008271689719)
(0.002405964935 1.387744377e-19 -0.009176492707)
(0.001489110363 1.398457902e-19 -0.006313755602)
(0.0004160028515 1.369701277e-19 0.08407577973)
(4.065933598e-05 1.34903889e-19 -0.0009211786549)
(6.987061368e-05 9.956563118e-20 -0.0009248048132)
(0.0001100937127 -5.331139184e-18 -0.0009327906264)
(0.0001525829414 1.087708725e-19 -0.0009449934219)
(0.0001965832149 1.40332879e-19 -0.0009614545526)
(0.0002420972674 1.383809316e-19 -0.0009822665441)
(0.0002893082374 1.395630364e-19 -0.001007558164)
(0.0003384635792 1.059266263e-19 -0.00103749256)
(0.0003898411879 -5.321052542e-18 -0.001072268574)
(0.0004437371166 1.201923999e-19 -0.001112123543)
(0.0005004603003 5.628587035e-18 -0.001157337254)
(0.000560329785 5.64520449e-18 -0.001208236986)
(0.0006236727227 1.934241891e-19 -0.001265203794)
(0.0006908223028 1.312525294e-19 -0.001328680225)
(0.0007621150954 1.3826159e-19 -0.001399179754)
(0.0008378873315 1.38331013e-19 -0.001477298363)
(0.0009184696628 1.382843668e-19 -0.001563728502)
(0.001004179739 1.383577897e-19 -0.001659276078)
(0.001095311746 1.382925388e-19 -0.001764881091)
(0.001192121807 1.382924113e-19 -0.001881642466)
(0.001294807732 1.382277788e-19 -0.002010847893)
(0.001403480909 1.381016655e-19 -0.002154009444)
(0.001518127404 1.381383678e-19 -0.002312905709)
(0.001638554321 1.376183534e-19 -0.002489630735)
(0.001764315826 1.378375379e-19 -0.002686649668)
(0.001894611252 1.379300619e-19 -0.002906860019)
(0.002028145373 1.378463733e-19 -0.003153655196)
(0.002162937618 1.380906207e-19 -0.003430983163)
(0.002296063907 1.376528351e-19 -0.003743387462)
(0.002423311232 1.376743321e-19 -0.004096007788)
(0.002538724141 1.376029488e-19 -0.004494501757)
(0.002634025837 1.380357013e-19 -0.00494482527)
(0.002697910172 1.410667999e-19 -0.005452774024)
(0.002715236533 1.170396109e-19 -0.006023138068)
(0.002666235248 -5.199096028e-18 -0.006658253861)
(0.002525985966 -3.327936995e-20 -0.007355666708)
(0.002264791433 1.596485827e-19 -0.008104942232)
(0.001845503376 1.401312437e-19 -0.008868845406)
(0.0009876823036 1.373956287e-19 -0.005465366704)
(0.0001954366238 1.180466348e-19 0.08543784655)
(3.793331412e-05 1.349216064e-19 -0.0009766915631)
(6.518675901e-05 9.949583074e-20 -0.000980534159)
(0.0001027153305 -5.330990103e-18 -0.0009889992338)
(0.000142360627 1.090933228e-19 -0.001001932983)
(0.0001834185879 1.396350362e-19 -0.001019376725)
(0.0002258914766 1.377762057e-19 -0.001041425121)
(0.000269948922 1.38912015e-19 -0.001068210107)
(0.000315819304 1.04090853e-19 -0.001099898669)
(0.0003637577764 -5.323121197e-18 -0.00113669391)
(0.0004140343508 1.226100338e-19 -0.001178837603)
(0.0004669284054 5.629440401e-18 -0.001226613839)
(0.0005227253936 5.641694974e-18 -0.001280353717)
(0.0005817140953 1.888055674e-19 -0.001340441114)
(0.0006441836043 1.302133183e-19 -0.00140731978)
(0.0007104195173 1.362787772e-19 -0.001481501886)
(0.0007806987923 1.361797725e-19 -0.001563578446)
(0.0008552827923 1.359369149e-19 -0.001654231805)
(0.000934407856 1.383499426e-19 -0.001754250533)
(0.001018272463 1.354544604e-19 -0.001864547317)
(0.001107019872 1.351717915e-19 -0.001986180113)
(0.001200714741 1.349439127e-19 -0.002120376976)
(0.001299311631 1.346512915e-19 -0.002268564922)
(0.001402612599 1.343511501e-19 -0.002432402882)
(0.001510210354 1.343012385e-19 -0.002613818327)
(0.001621412097 1.336656095e-19 -0.00281504623)
(0.001735137757 1.333245083e-19 -0.003038667875)
(0.001849784763 1.329977885e-19 -0.003287644635)
(0.001963049606 1.325646964e-19 -0.003565337692)
(0.002071695394 1.32606005e-19 -0.003875499135)
(0.002171253907 1.323494268e-19 -0.004222210732)
(0.002255653499 1.323061273e-19 -0.004609733655)
(0.002316772824 1.321886495e-19 -0.00504221292)
(0.002343939403 1.374194364e-19 -0.005523155529)
(0.002323431575 9.543397157e-20 -0.006054569534)
(0.002238116272 -5.20911812e-18 -0.00663561759)
(0.002067491236 -1.486816105e-21 -0.007260631893)
(0.001788684853 1.498441969e-19 -0.007916843471)
(0.00137447629 1.34677961e-19 -0.008560346198)
(0.0005817310117 1.354496316e-19 -0.004685208508)
(2.179682507e-05 1.166592006e-19 0.08655283837)
(3.505339167e-05 1.349930092e-19 -0.001028244677)
(6.023880124e-05 9.898295327e-20 -0.001032289449)
(9.492182664e-05 -5.331405196e-18 -0.001041202204)
(0.0001315651108 1.102137594e-19 -0.001054818374)
(0.0001695191587 1.399494802e-19 -0.001073178782)
(0.0002087865008 1.384195941e-19 -0.001096379433)
(0.000249523408 1.397863193e-19 -0.001124554348)
(0.0002919392228 1.039562308e-19 -0.001157872956)
(0.0003362664399 -5.323166227e-18 -0.001196540872)
(0.0003827492507 1.275323034e-19 -0.001240802165)
(0.000431637932 5.633073404e-18 -0.001290942615)
(0.0004831851086 5.641267578e-18 -0.001347293956)
(0.0005376423725 1.873670367e-19 -0.001410239051)
(0.0005952564647 1.327302088e-19 -0.001480218219)
(0.0006562644752 1.383194129e-19 -0.001557736783)
(0.000720887547 1.383851763e-19 -0.001643374128)
(0.0007893225202 1.38384622e-19 -0.001737794526)
(0.0008617309047 1.383672574e-19 -0.001841759763)
(0.0009382242556 1.383788976e-19 -0.001956144021)
(0.001018844808 1.384555986e-19 -0.00208195115)
(0.001103540004 1.383508915e-19 -0.002220334344)
(0.001192128981 1.383034723e-19 -0.002372618194)
(0.001284258504 1.38343593e-19 -0.002540322647)
(0.001379345288 1.387007867e-19 -0.002725187887)
(0.001476500764 1.381324074e-19 -0.002929197943)
(0.001574433348 1.382185811e-19 -0.003154599561)
(0.001671322513 1.382252452e-19 -0.003403910484)
(0.001764658128 1.384239614e-19 -0.003679907558)