/*--------------------------------*- C++ -*----------------------------------*\
| =========                 |                                                 |
| \\      /  F ield         | OpenFOAM: The Open Source CFD Toolbox           |
|  \\    /   O peration     | Version:  v1912                                 |
|   \\  /    A nd           | Website:  www.openfoam.com                      |
|    \\/     M anipulation  |                                                 |
\*---------------------------------------------------------------------------*/
FoamFile
{
    version     2.0;
    format      ascii;
    class       volScalarField;
    location    "0.4";
    object      alphat.gas;
}
// * * * * * * * * * * * * * * * * * * * * * * * * * * * * * * * * * * * * * //

dimensions      [1 -1 -1 0 0 0 0];


internalField   nonuniform List<scalar> 
4800
(
2.340292483e-08
4.451315582e-08
5.947415424e-08
7.178197434e-08
8.254267836e-08
9.227775229e-08
1.01289626e-07
1.097770213e-07
1.178829733e-07
1.257182752e-07
1.333742987e-07
1.409306601e-07
1.484601841e-07
1.560323506e-07
1.637158786e-07
1.715808024e-07
1.797002738e-07
1.88152238e-07
1.970211012e-07
2.063994887e-07
2.163901907e-07
2.271084094e-07
2.386844439e-07
2.512669999e-07
2.650273833e-07
2.801649414e-07
2.969143106e-07
3.155553086e-07
3.364267815e-07
3.599465286e-07
3.866408553e-07
4.171892458e-07
4.525022617e-07
4.937721331e-07
5.431612489e-07
6.022011638e-07
6.706400595e-07
8.268098569e-07
5.533452069e-07
1.45058032e-06
3.91810684e-08
7.638844054e-08
1.030886074e-07
1.250857135e-07
1.44251586e-07
1.614656062e-07
1.772280871e-07
1.918563264e-07
2.055667124e-07
2.185147533e-07
2.308167326e-07
2.425623635e-07
2.538226324e-07
2.646549019e-07
2.751063563e-07
2.85216412e-07
2.950184469e-07
3.045410775e-07
3.13809122e-07
3.228443457e-07
3.316660529e-07
3.402915717e-07
3.487366675e-07
3.570159169e-07
3.651430635e-07
3.731313972e-07
3.809941849e-07
3.887452135e-07
3.963995294e-07
4.039745039e-07
4.11491538e-07
4.189772051e-07
4.264898214e-07
4.338488718e-07
4.432523149e-07
4.417625772e-07
4.792159339e-07
4.186572142e-07
5.70567813e-07
2.626578364e-06
3.816115496e-08
7.431934399e-08
1.002527595e-07
1.216162143e-07
1.402300392e-07
1.569484504e-07
1.722570362e-07
1.86463537e-07
1.99777687e-07
2.123501167e-07
2.24293391e-07
2.356942962e-07
2.466214555e-07
2.571302783e-07
2.672663053e-07
2.770675428e-07
2.865661395e-07
2.95789621e-07
3.047618202e-07
3.135035939e-07
3.220333902e-07
3.303677084e-07
3.385214886e-07
3.465084549e-07
3.543414428e-07
3.620327344e-07
3.695944409e-07
3.770389802e-07
3.84379733e-07
3.916320094e-07
3.988145994e-07
4.059515848e-07
4.130860665e-07
4.201808932e-07
4.281177457e-07
4.308252179e-07
4.674315928e-07
4.400880451e-07
7.487321212e-07
3.126844697e-06
3.822122738e-08
7.444157382e-08
1.004197439e-07
1.218199931e-07
1.404657851e-07
1.572129189e-07
1.725479199e-07
1.867791459e-07
2.00116768e-07
2.127117443e-07
2.246768962e-07
2.360992186e-07
2.470475099e-07
2.57577332e-07
2.677343612e-07
2.775567286e-07
2.870767009e-07
2.963219178e-07
3.053163261e-07
3.140808991e-07
3.226342067e-07
3.309928784e-07
3.391719955e-07
3.471854382e-07
3.550462138e-07
3.627667934e-07
3.703594891e-07
3.778369168e-07
3.852126114e-07
3.925018979e-07
3.997232143e-07
4.06899616e-07
4.140679356e-07
4.212332084e-07
4.285815725e-07
4.368181457e-07
4.482686089e-07
2.572827935e-07
8.069142347e-07
3.473496833e-06
3.821007912e-08
7.441929489e-08
1.003890738e-07
1.21782404e-07
1.404221049e-07
1.571637045e-07
1.724935704e-07
1.867199572e-07
2.00052964e-07
2.126434955e-07
2.246043318e-07
2.360224346e-07
2.469665748e-07
2.574922901e-07
2.676452352e-07
2.774635204e-07
2.869793919e-07
2.962204675e-07
3.052106693e-07
3.139709417e-07
3.225198181e-07
3.308738813e-07
3.3904815e-07
3.470564173e-07
3.549115673e-07
3.626258905e-07
3.70211427e-07
3.776803713e-07
3.850455844e-07
3.923212805e-07
3.995239758e-07
4.066739124e-07
4.137951064e-07
4.209470677e-07
4.278972907e-07
4.368323524e-07
4.368155599e-07
4.532141449e-07
7.569555579e-07
3.760242446e-06
3.820378296e-08
7.440700702e-08
1.00372055e-07
1.217614983e-07
1.403977541e-07
1.571362114e-07
1.724631578e-07
1.866867966e-07
2.000171917e-07
2.126052227e-07
2.245636508e-07
2.359794232e-07
2.469212991e-07
2.574448066e-07
2.675955919e-07
2.774117576e-07
2.869255411e-07
2.961645512e-07
3.051526979e-07
3.139109099e-07
3.224576988e-07
3.308096166e-07
3.389816368e-07
3.469874863e-07
3.548399499e-07
3.625511673e-07
3.701329465e-07
3.775971166e-07
3.84955956e-07
3.922227315e-07
3.994123877e-07
4.065427663e-07
4.136300267e-07
4.207732395e-07
4.27325307e-07
4.364244577e-07
4.539735398e-07
6.663880669e-07
1.719495182e-06
4.02440029e-06
3.819719579e-08
7.439413914e-08
1.003541613e-07
1.217394789e-07
1.403720715e-07
1.571071816e-07
1.724310126e-07
1.866517133e-07
1.999793101e-07
2.125646555e-07
2.245204903e-07
2.359337456e-07
2.468731679e-07
2.573942742e-07
2.675427008e-07
2.773565405e-07
2.868680208e-07
2.961047383e-07
3.050905883e-07
3.1384648e-07
3.223908984e-07
3.30740358e-07
3.389097791e-07
3.469128123e-07
3.547621304e-07
3.624697077e-07
3.700471046e-07
3.775057763e-07
3.848574288e-07
3.921144472e-07
3.992904276e-07
4.064008816e-07
4.134626034e-07
4.205284247e-07
4.271575631e-07
4.381914381e-07
4.235946102e-07
3.506108427e-07
1.602148921e-06
4.254107415e-06
3.81906692e-08
7.438142335e-08
1.003364047e-07
1.217175906e-07
1.403465072e-07
1.570782529e-07
1.723989483e-07
1.866166886e-07
1.999414633e-07
2.125240983e-07
2.244773142e-07
2.358880265e-07
2.468249687e-07
2.573436471e-07
2.67489688e-07
2.773011746e-07
2.868103235e-07
2.96044719e-07
3.050282408e-07
3.137817772e-07
3.223237847e-07
3.306707384e-07
3.388375027e-07
3.468376484e-07
3.546837342e-07
3.62387569e-07
3.699604727e-07
3.77413549e-07
3.847579883e-07
3.920054221e-07
3.991683668e-07
4.062605547e-07
4.133013194e-07
4.202743139e-07
4.27389586e-07
4.359780436e-07
4.088304622e-07
6.096884638e-07
1.97732274e-06
4.496733853e-06
3.818418123e-08
7.436881436e-08
1.003187239e-07
1.216957594e-07
1.403209759e-07
1.570493297e-07
1.723668599e-07
1.865816085e-07
1.999035286e-07
2.124834195e-07
2.244339821e-07
2.358421162e-07
2.467765427e-07
2.57292757e-07
2.674363757e-07
2.772454718e-07
2.867522514e-07
2.959842857e-07
3.049654382e-07
3.137165755e-07
3.222561246e-07
3.306005198e-07
3.387645683e-07
3.467617608e-07
3.546045427e-07
3.623045632e-07
3.69872916e-07
3.77320385e-07
3.846577111e-07
3.918959023e-07
3.990466141e-07
4.061227318e-07
4.131371359e-07
4.201449001e-07
4.266187047e-07
4.385768128e-07
4.133233488e-07
3.355654284e-07
1.941338432e-06
4.722505566e-06
3.817773566e-08
7.435632094e-08
1.003011329e-07
1.21674004e-07
1.402955006e-07
1.570204396e-07
1.723347791e-07
1.865465088e-07
1.998655457e-07
2.12442663e-07
2.243905418e-07
2.357960668e-07
2.467279464e-07
2.572416653e-07
2.673828302e-07
2.771895045e-07
2.866938833e-07
2.95923525e-07
3.049022765e-07
3.136509825e-07
3.221880404e-07
3.305298433e-07
3.386911418e-07
3.466853479e-07
3.545247981e-07
3.622209911e-07
3.697848129e-07
3.772267629e-07
3.845571976e-07
3.917866129e-07
3.98925999e-07
4.059874826e-07
4.129814916e-07
4.199938355e-07
4.259325609e-07
4.449228823e-07
3.236201887e-07
6.811509238e-07
2.862092935e-06
4.958457281e-06
3.817133473e-08
7.434394863e-08
1.002836414e-07
1.216523376e-07
1.402700985e-07
1.569916032e-07
1.723027301e-07
1.865114172e-07
1.998275457e-07
2.124018631e-07
2.243470313e-07
2.357499199e-07
2.466792249e-07
2.571904209e-07
2.673291049e-07
2.771333306e-07
2.866352828e-07
2.95862507e-07
3.048388339e-07
3.135850865e-07
3.221196328e-07
3.304588257e-07
3.386173607e-07
3.466085743e-07
3.544446999e-07
3.621370968e-07
3.696964627e-07
3.771330466e-07
3.844568757e-07
3.916780219e-07
3.988069381e-07
4.058552013e-07
4.128301071e-07
4.198623777e-07
4.251706054e-07
4.500381025e-07
2.890622805e-07
5.164126479e-07
3.408920173e-06
5.205414182e-06
3.816498106e-08
7.433170364e-08
1.0026626e-07
1.216307753e-07
1.402447885e-07
1.569628432e-07
1.722707395e-07
1.86476364e-07
1.997895629e-07
2.123610581e-07
2.243034926e-07
2.357037211e-07
2.46630428e-07
2.571390777e-07
2.672752581e-07
2.770770138e-07
2.865765193e-07
2.958013079e-07
3.047751946e-07
3.135189814e-07
3.22051008e-07
3.303875884e-07
3.385433654e-07
3.465316039e-07
3.543644413e-07
3.620531084e-07
3.696081334e-07
3.77039544e-07
3.843570827e-07
3.915704599e-07
3.986896738e-07
4.057258335e-07
4.12683069e-07
4.197437735e-07
4.242365481e-07
4.581044481e-07
1.417752029e-07
8.70692722e-07
3.918676093e-06
5.461976559e-06
3.815867751e-08
7.431959264e-08
1.002490002e-07
1.216093328e-07
1.402195907e-07
1.569341842e-07
1.72238836e-07
1.864413821e-07
1.99751634e-07
2.123202885e-07
2.242599701e-07
2.356575192e-07
2.465816086e-07
2.570876932e-07
2.672213521e-07
2.770206214e-07
2.865176659e-07
2.957400076e-07
3.047114464e-07
3.134527645e-07
3.219822745e-07
3.303162535e-07
3.384692946e-07
3.464545956e-07
3.542842045e-07
3.619692346e-07
3.695200608e-07
3.769465136e-07
3.842580841e-07
3.914641641e-07
3.985743481e-07
4.055992384e-07
4.125415893e-07
4.195991674e-07
4.23994643e-07
4.476362585e-07
5.611252408e-07
1.065062947e-06
4.382872882e-06
5.728089293e-06
3.815242717e-08
7.430762272e-08
1.002318741e-07
1.215880271e-07
1.401945266e-07
1.569056521e-07
1.722070499e-07
1.864065061e-07
1.997137979e-07
2.122795977e-07
2.242165116e-07
2.35611366e-07
2.46532823e-07
2.57036328e-07
2.671674524e-07
2.769642241e-07
2.864587993e-07
2.956786892e-07
3.0464768e-07
3.133865353e-07
3.219135422e-07
3.302449435e-07
3.383952853e-07
3.463777029e-07
3.542041618e-07
3.61885667e-07
3.694324543e-07
3.768541759e-07
3.841600959e-07
3.91359317e-07
3.98461058e-07
4.054754129e-07
4.124042355e-07
4.194472969e-07
4.23988009e-07
4.407959409e-07
5.649370046e-07
1.254398631e-06
4.822128571e-06
6.004341086e-06
3.814623341e-08
7.429580143e-08
1.002148945e-07
1.21566876e-07
1.401696189e-07
1.568772744e-07
1.721754133e-07
1.863717727e-07
1.99676096e-07
2.122390314e-07
2.241731671e-07
2.355653162e-07
2.464841302e-07
2.569850461e-07
2.671136277e-07
2.76907896e-07
2.863999991e-07
2.956174389e-07
3.045839889e-07
3.133203956e-07
3.218449226e-07
3.301737807e-07
3.383214723e-07
3.463010746e-07
3.541244764e-07
3.618025832e-07
3.693455028e-07
3.767627242e-07
3.840633028e-07
3.912560725e-07
3.983498966e-07
4.053543488e-07
4.122711124e-07
4.192855829e-07
4.241242012e-07
4.31460471e-07
6.926566089e-07
1.471194598e-06
5.243910919e-06
6.290875174e-06
3.814009983e-08
7.428413673e-08
1.001980751e-07
1.215458984e-07
1.401448916e-07
1.568490799e-07
1.721439601e-07
1.863372207e-07
1.996385716e-07
2.121986376e-07
2.241299895e-07
2.355194272e-07
2.464355924e-07
2.569339143e-07
2.670599501e-07
2.768517142e-07
2.863413483e-07
2.955563457e-07
3.045204689e-07
3.13254449e-07
3.217765282e-07
3.301028873e-07
3.382479886e-07
3.462248554e-07
3.540453049e-07
3.617201502e-07
3.692593807e-07
3.766723336e-07
3.839678705e-07
3.911545727e-07
3.98240966e-07
4.052360532e-07
4.121442745e-07
4.190434204e-07
4.258071794e-07
4.233093575e-07
3.811507466e-07
1.716530002e-06
5.650445686e-06
6.587027269e-06
3.813403031e-08
7.4272637e-08
1.001814301e-07
1.215251139e-07
1.401203696e-07
1.56821099e-07
1.721127258e-07
1.863028905e-07
1.996012705e-07
2.12158467e-07
2.240870341e-07
2.354737593e-07
2.463872748e-07
2.568830027e-07
2.670064944e-07
2.767957591e-07
2.862829327e-07
2.954955016e-07
3.044572187e-07
3.131888015e-07
3.217084728e-07
3.300323863e-07
3.38174967e-07
3.461491876e-07
3.539667991e-07
3.61638528e-07
3.691742526e-07
3.765831685e-07
3.838739552e-07
3.910549565e-07
3.981343789e-07
4.051207364e-07
4.120185785e-07
4.188922254e-07
4.257059371e-07
4.23818752e-07
3.561730287e-07
1.960559991e-06
6.044260398e-06
6.891631442e-06
3.812802896e-08
7.4261311e-08
1.001649744e-07
1.215045432e-07
1.400960793e-07
1.567933634e-07
1.720817474e-07
1.862688247e-07
1.995642401e-07
2.121185723e-07
2.240443589e-07
2.354283753e-07
2.463392453e-07
2.568323843e-07
2.669533388e-07
2.76740114e-07
2.862248413e-07
2.954350015e-07
3.043943397e-07
3.131235614e-07
3.216408725e-07
3.29962402e-07
3.381025402e-07
3.46074213e-07
3.53889109e-07
3.615578731e-07
3.690902788e-07
3.764953881e-07
3.837817093e-07
3.90957364e-07
3.980302619e-07
4.050084588e-07
4.118971905e-07
4.187234131e-07
4.262899496e-07
4.118910185e-07
4.365849401e-07
2.165521758e-06
6.427373781e-06
7.202920787e-06
3.812210013e-08
7.425016784e-08
1.001487236e-07
1.214842078e-07
1.400720478e-07
1.567659061e-07
1.720510637e-07
1.862350673e-07
1.995275302e-07
2.120790087e-07
2.240020242e-07
2.35383341e-07
2.462915747e-07
2.567821351e-07
2.669005649e-07
2.766848659e-07
2.861671666e-07
2.953749439e-07
3.043319365e-07
3.130588404e-07
3.215738464e-07
3.298930613e-07
3.380308435e-07
3.460000751e-07
3.538123854e-07
3.614783421e-07
3.690076191e-07
3.764091514e-07
3.836912863e-07
3.908619386e-07
3.979287484e-07
4.048993571e-07
4.117800719e-07
4.185463756e-07
4.272887627e-07
3.908223489e-07
5.781785083e-07
2.424726874e-06
6.799577734e-06
7.519432936e-06
3.811624843e-08
7.423921694e-08
1.001326936e-07
1.214641298e-07
1.400483035e-07
1.567387613e-07
1.720207146e-07
1.862016643e-07
1.994911924e-07
2.120398332e-07
2.239600929e-07
2.353387247e-07
2.462443368e-07
2.567323345e-07
2.668482572e-07
2.76630105e-07
2.861100048e-07
2.953154309e-07
3.042701179e-07
3.129947541e-07
3.215075176e-07
3.298244952e-07
3.379600161e-07
3.45926921e-07
3.537367831e-07
3.614000958e-07
3.689264374e-07
3.763246218e-07
3.836028442e-07
3.90768829e-07
3.978299755e-07
4.047935829e-07
4.116664547e-07
4.183952008e-07
4.278160018e-07
3.768760364e-07
6.727937373e-07
2.689243939e-06
7.163186782e-06
7.840053239e-06
3.811047866e-08
7.422846797e-08
1.001169011e-07
1.214443322e-07
1.400248753e-07
1.567119643e-07
1.719907417e-07
1.861686633e-07
1.994552802e-07
2.120011055e-07
2.239186302e-07
2.352945975e-07
2.461976086e-07
2.56683065e-07
2.667965042e-07
2.765759257e-07
2.86053456e-07
2.952565691e-07
3.042089972e-07
3.129314231e-07
3.214420143e-07
3.297568403e-07
3.378902033e-07
3.458549049e-07
3.536624641e-07
3.613233027e-07
3.688469062e-07
3.762419719e-07
3.835165506e-07
3.906781912e-07
3.977340822e-07
4.046912527e-07
4.115566012e-07
4.182647858e-07
4.280303169e-07
3.67271814e-07
7.527609265e-07
2.917003298e-06
7.519618689e-06
8.163054598e-06
3.810479582e-08
7.42179308e-08
1.001013631e-07
1.214248385e-07
1.400017934e-07
1.566855515e-07
1.719611877e-07
1.861361131e-07
1.994198489e-07
2.11962887e-07
2.238777039e-07
2.352510332e-07
2.4615147e-07
2.566344128e-07
2.667453981e-07
2.765224262e-07
2.859976253e-07
2.951984703e-07
3.041486934e-07
3.128689742e-07
3.213774719e-07
3.29690241e-07
3.378215589e-07
3.457841899e-07
3.535896009e-07
3.612481432e-07
3.687692112e-07
3.761613882e-07
3.834325866e-07
3.905901921e-07
3.97641209e-07
4.045924597e-07
4.114508051e-07
4.181455455e-07
4.281996746e-07
3.567455172e-07
8.109591278e-07
9.120679025e-07
7.876108522e-06
8.486753732e-06
3.809920512e-08
7.420761537e-08
1.000860969e-07
1.214056728e-07
1.399790882e-07
1.566595599e-07
1.719320962e-07
1.861040643e-07
1.993849555e-07
2.119252413e-07
2.238373842e-07
2.352081084e-07
2.461060042e-07
2.565864674e-07
2.666950352e-07
2.764697099e-07
2.859426228e-07
2.951412523e-07
3.040893323e-07
3.128075417e-07
3.213140341e-07
3.296248511e-07
3.377542475e-07
3.457149521e-07
3.535183804e-07
3.611748141e-07
3.686935564e-07
3.760830774e-07
3.833511538e-07
3.905050163e-07
3.975515044e-07
4.0449728e-07
4.113490865e-07
4.180393972e-07
4.281454291e-07
3.505013246e-07
8.37977489e-07
1.20543202e-06
8.227623042e-06
8.810345811e-06
3.80937119e-08
7.419753165e-08
1.000711201e-07
1.213868592e-07
1.39956791e-07
1.566340277e-07
1.719035122e-07
1.860725684e-07
1.993506585e-07
2.118882338e-07
2.237977433e-07
2.351659027e-07
2.460612975e-07
2.565393225e-07
2.666455163e-07
2.764178849e-07
2.858885647e-07
2.950850394e-07
3.040310472e-07
3.127472688e-07
3.212518548e-07
3.295608363e-07
3.376884476e-07
3.456473832e-07
3.534490081e-07
3.611035333e-07
3.686201699e-07
3.760072727e-07
3.832724819e-07
3.904228754e-07
3.974651375e-07
4.044057985e-07
4.11251293e-07
4.179485847e-07
4.277836851e-07
3.505667104e-07
8.442423736e-07
1.560299508e-06
8.573536934e-06
9.133337496e-06
3.808832166e-08
7.418768949e-08
1.000564504e-07
1.213684225e-07
1.399349331e-07
1.566089932e-07
1.71875481e-07
1.860416781e-07
1.993170178e-07
2.118519318e-07
2.237588559e-07
2.35124498e-07
2.460174397e-07
2.564930755e-07
2.66596947e-07
2.763670653e-07
2.858355737e-07
2.950299637e-07
3.039739805e-07
3.126883092e-07
3.211911002e-07
3.294983768e-07
3.376243547e-07
3.455816954e-07
3.533817129e-07
3.610345466e-07
3.685493117e-07
3.759342429e-07
3.831968389e-07
3.903440208e-07
3.973823159e-07
4.043181228e-07
4.111577287e-07
4.17863504e-07
4.272523605e-07
3.530804282e-07
8.833213907e-07
1.862277709e-06
8.913058898e-06
9.455174665e-06
3.808304005e-08
7.417809841e-08
1.000421054e-07
1.213503872e-07
1.399135462e-07
1.565844951e-07
1.718480488e-07
1.860114469e-07
1.992840944e-07
2.11816404e-07
2.237207988e-07
2.350839792e-07
2.459745238e-07
2.564478282e-07
2.665494378e-07
2.763173709e-07
2.857837799e-07
2.949761663e-07
3.039182851e-07
3.126308291e-07
3.211319513e-07
3.294376704e-07
3.375621853e-07
3.455181256e-07
3.533167539e-07
3.609681344e-07
3.684812814e-07
3.758643017e-07
3.831245425e-07
3.90268757e-07
3.973033037e-07
4.042344207e-07
4.110686909e-07
4.177883939e-07
4.259260432e-07
3.747582467e-07
9.835475172e-07
2.140809468e-06
9.246281212e-06
9.775625428e-06
3.807787286e-08
7.416876748e-08
1.000281027e-07
1.213327776e-07
1.398926617e-07
1.565605722e-07
1.718212617e-07
1.859819285e-07
1.992519502e-07
2.117817204e-07
2.236836503e-07
2.350444335e-07
2.459326464e-07
2.564036865e-07
2.665031049e-07
2.762689286e-07
2.857333215e-07
2.949237978e-07
3.038641257e-07
3.125750088e-07
3.210746065e-07
3.293789358e-07
3.375021811e-07
3.454569413e-07
3.532544261e-07
3.609046204e-07
3.684164293e-07
3.757978202e-07
3.830559745e-07
3.901974585e-07
3.972284407e-07
4.041549807e-07
4.109843061e-07
4.17677172e-07
4.259362219e-07
3.822895595e-07
1.058937379e-06
2.498583934e-06
9.57571097e-06
1.009504776e-05
3.807282606e-08
7.4159705e-08
1.000144593e-07
1.213156176e-07
1.398723106e-07
1.565372628e-07
1.717951657e-07
1.859531771e-07
1.992206474e-07
2.11747952e-07
2.236474906e-07
2.350059505e-07
2.45891907e-07
2.563607606e-07
2.664580696e-07
2.76221872e-07
2.856843453e-07
2.948730199e-07
3.038116803e-07
3.125210451e-07
3.210192843e-07
3.293224163e-07
3.374446145e-07
3.453984476e-07
3.531950703e-07
3.608443824e-07
3.683551693e-07
3.757352432e-07
3.829915991e-07
3.901305904e-07
3.971581665e-07
4.040801771e-07
4.109045436e-07
4.175586664e-07
4.264531015e-07
3.893934305e-07
1.125872947e-06
2.767568745e-06
9.898330145e-06
1.041421949e-05
3.806790595e-08
7.415091818e-08
1.000011917e-07
1.212989305e-07
1.398525232e-07
1.565146046e-07
1.717698062e-07
1.859252463e-07
1.991902484e-07
2.117151703e-07
2.236124007e-07
2.349686217e-07
2.458524081e-07
2.563191648e-07
2.664144591e-07
2.761763419e-07
2.856370075e-07
2.948240058e-07
3.037611418e-07
3.124691536e-07
3.209662263e-07
3.292683844e-07
3.373897936e-07
3.453429935e-07
3.531390812e-07
3.607878635e-07
3.682979926e-07
3.75677106e-07
3.829319846e-07
3.900687328e-07
3.970930454e-07
4.040105327e-07
4.108292297e-07
4.17460163e-07
4.269132609e-07
3.873023311e-07
2.332222786e-07
3.089445435e-06
1.021474912e-05
1.073343512e-05
3.80631193e-08
7.414241263e-08
9.998831565e-08
1.212827383e-07
1.398333284e-07
1.56492634e-07
1.717452276e-07
1.858981886e-07
1.991608146e-07
2.116834464e-07
2.235784622e-07
2.349325397e-07
2.458142543e-07
2.56279017e-07
2.663724055e-07
2.761324865e-07
2.855914742e-07
2.947769415e-07
3.037127194e-07
3.124195708e-07
3.209157005e-07
3.292171439e-07
3.373380625e-07
3.452909687e-07
3.530869003e-07
3.607355636e-07
3.682454624e-07
3.756240345e-07
3.828778106e-07
3.900125976e-07
3.97033788e-07
4.039467066e-07
4.107593339e-07
4.17370551e-07
4.273358063e-07
3.708743633e-07
4.600638594e-07
3.408880687e-06
1.052423022e-05
1.105227109e-05
3.805847369e-08
7.413419168e-08
9.997584584e-08
1.212670615e-07
1.398147536e-07
1.564713856e-07
1.717214723e-07
1.858720551e-07
1.991324064e-07
2.116528507e-07
2.235457565e-07
2.34897798e-07
2.457775525e-07
2.562404384e-07
2.663320464e-07
2.760904616e-07
2.855479215e-07
2.947320271e-07
3.036666397e-07
3.123725529e-07
3.208679975e-07
3.291690244e-07
3.372897944e-07
3.452427953e-07
3.530390053e-07
3.606880245e-07
3.681981926e-07
3.755767201e-07
3.828298434e-07
3.899630133e-07
3.969812485e-07
4.038895252e-07
4.10695527e-07
4.172934521e-07
4.276010359e-07
3.557015867e-07
6.134202532e-07
3.722120205e-06
1.082675653e-05
1.13704959e-05
3.805397804e-08
7.412625591e-08
9.99637956e-08
1.21251919e-07
1.39796824e-07
1.564508917e-07
1.716985803e-07
1.858468944e-07
1.99105082e-07
2.116234518e-07
2.23514364e-07
2.348644899e-07
2.457424106e-07
2.562035531e-07
2.662935239e-07
2.760504296e-07
2.855065358e-07
2.946894752e-07
3.036231432e-07
3.123283702e-07
3.208234242e-07
3.291243837e-07
3.372454156e-07
3.451989818e-07
3.529959925e-07
3.606459264e-07
3.681569386e-07
3.755359846e-07
3.827889673e-07
3.899209275e-07
3.969364159e-07
4.038399622e-07
4.106386572e-07
4.172313571e-07
4.276589881e-07
3.426995281e-07
7.623386868e-07
4.010794364e-06
1.112152205e-05
1.168899216e-05
3.804964388e-08
7.411860216e-08
9.99521769e-08
1.21237327e-07
1.39779562e-07
1.564311816e-07
1.716765886e-07
1.85822752e-07
1.990788963e-07
2.115953157e-07
2.234843629e-07
2.348327078e-07
2.457089363e-07
2.561684869e-07
2.662569834e-07
2.760125563e-07
2.854675032e-07
2.946494975e-07
3.035824816e-07
3.122873327e-07
3.207823616e-07
3.290836819e-07
3.372054763e-07
3.45160187e-07
3.529586525e-07
3.606102101e-07
3.68122788e-07
3.755030257e-07
3.827564293e-07
3.8988758e-07
3.969005054e-07
4.037991831e-07
4.10590011e-07
4.171765819e-07
4.276869874e-07
3.304299188e-07
9.263043788e-07
4.412393541e-06
1.140616471e-05
1.200962146e-05
3.804548783e-08
7.411121895e-08
9.994099918e-08
1.212232987e-07
1.397629861e-07
1.564122801e-07
1.716555294e-07
1.857996683e-07
1.990538992e-07
2.115685026e-07
2.234558247e-07
2.348025356e-07
2.456772277e-07
2.561353535e-07
2.662225585e-07
2.759770037e-07
2.854310245e-07
2.946123413e-07
3.035449516e-07
3.122497928e-07
3.20745231e-07
3.290474233e-07
3.371705759e-07
3.451271192e-07
3.529278237e-07
3.605818769e-07
3.680969505e-07
3.754792995e-07
3.82733914e-07
3.898647592e-07
3.968752373e-07
4.037687471e-07
4.105508928e-07
4.171321397e-07
4.276362087e-07
3.216057204e-07
1.015598823e-06
1.594739945e-06
1.16950857e-05
1.233344015e-05
3.80415556e-08
7.410406426e-08
9.993027189e-08
1.212098425e-07
1.397471084e-07
1.563942039e-07
1.716354251e-07
1.85777673e-07
1.990301289e-07
2.115430613e-07
2.234288116e-07
2.347740519e-07
2.456473839e-07
2.561042767e-07
2.66190402e-07
2.759439568e-07
2.853973233e-07
2.945782768e-07
3.035108769e-07
3.122161299e-07
3.207124747e-07
3.290161331e-07
3.371413516e-07
3.451005589e-07
3.529044563e-07
3.605620663e-07
3.680807702e-07
3.754663782e-07
3.827232709e-07
3.898546271e-07
3.968629535e-07
4.037508648e-07
4.105231813e-07
4.170994472e-07
4.274983846e-07
3.147443608e-07
1.060424015e-06
1.789730769e-06
1.198362475e-05
1.266148883e-05
3.803798866e-08
7.409699538e-08
9.992000249e-08
1.211969601e-07
1.397319359e-07
1.56376967e-07
1.716162972e-07
1.857567961e-07
1.990076258e-07
2.115190446e-07
2.23403391e-07
2.347473416e-07
2.456195103e-07
2.560753872e-07
2.661606736e-07
2.759136077e-07
2.853666247e-07
2.945475666e-07
3.034805721e-07
3.121867356e-07
3.206845871e-07
3.289904319e-07
3.371185773e-07
3.450814662e-07
3.52889737e-07
3.605522333e-07
3.680759999e-07
3.75466312e-07
3.827268071e-07
3.898597173e-07
3.968664305e-07
4.037484062e-07
4.105094426e-07
4.170786309e-07
4.273348414e-07
3.080940714e-07
1.111878113e-06
2.106841308e-06
1.226582509e-05
1.299372538e-05
3.803458882e-08
7.409026317e-08
9.991019422e-08
1.21184668e-07
1.397174859e-07
1.563605889e-07
1.715981698e-07
1.857370682e-07
1.989864288e-07
2.114965015e-07
2.233796239e-07
2.347224799e-07
2.455936985e-07
2.560487948e-07
2.661335065e-07
2.75886121e-07
2.853391377e-07
2.945204797e-07
3.034543814e-07
3.121620457e-07
3.20662117e-07
3.289710113e-07
3.371031259e-07
3.450709433e-07
3.528850516e-07
3.60554106e-07
3.680847687e-07
3.754816777e-07
3.827475454e-07
3.898833974e-07
3.968892038e-07
4.037649197e-07
4.105129047e-07
4.170724037e-07
4.271322706e-07
3.017536555e-07
1.171935442e-06
2.475828961e-06
1.254147971e-05
1.332783063e-05
3.803132371e-08
7.408381881e-08
9.990082303e-08
1.211729521e-07
1.397037496e-07
1.563450648e-07
1.715810425e-07
1.857184946e-07
1.989665505e-07
2.114754539e-07
2.233575449e-07
2.346995176e-07
2.455700209e-07
2.560246002e-07
2.661090367e-07
2.758616762e-07
2.853150943e-07
2.944973087e-07
3.034326706e-07
3.121425198e-07
3.206456534e-07
3.289586369e-07
3.370959932e-07
3.450702761e-07
3.528920485e-07
3.605697785e-07
3.681096993e-07
3.755156962e-07
3.827893352e-07
3.899301004e-07
3.969360719e-07
4.038051778e-07
4.105377843e-07
4.170852726e-07
4.268342431e-07
2.96318391e-07
1.253218809e-06
2.822576336e-06
1.280903348e-05
1.365941109e-05
3.802819245e-08
7.407765477e-08
9.989187606e-08
1.21161799e-07
1.396907147e-07
1.563303848e-07
1.71564909e-07
1.857010739e-07
1.989479962e-07
2.114559164e-07
2.233371803e-07
2.346784964e-07
2.455485386e-07
2.560028898e-07
2.660873837e-07
2.758404369e-07
2.852947161e-07
2.94478354e-07
3.034158422e-07
3.121286866e-07
3.206358721e-07
3.289541693e-07
3.370982976e-07
3.450809434e-07
3.529126788e-07
3.606017892e-07
3.681540409e-07
3.755724427e-07
3.828571498e-07
3.900056721e-07
3.970135525e-07
4.038758807e-07
4.10590146e-07
4.171187792e-07
4.26469375e-07
2.963127292e-07
1.324755969e-06
3.145918476e-06
1.306679742e-05
1.398289086e-05
3.802519011e-08
7.407175991e-08
9.988333878e-08
1.211511919e-07
1.396783635e-07
1.563165313e-07
1.715497529e-07
1.856847927e-07
1.989307577e-07
2.114378885e-07
2.233185401e-07
2.346594408e-07
2.455292957e-07
2.559837331e-07
2.6606865e-07
2.758225478e-07
2.852782044e-07
2.944638944e-07
3.034042851e-07
3.121210907e-07
3.206335325e-07
3.289586367e-07
3.371113803e-07
3.451046831e-07
3.5294924e-07
3.60653203e-07
3.682218277e-07
3.756571033e-07
3.829574787e-07
3.901179417e-07
3.971306294e-07
4.039866016e-07
4.106790823e-07
4.171794889e-07
4.261056728e-07
2.975884753e-07
1.408940578e-06
3.506162731e-06
1.331508991e-05
1.429279292e-05
3.802230895e-08
7.406611846e-08
9.98751914e-08
1.211411073e-07
1.396666701e-07
1.56303477e-07
1.715355468e-07
1.856696249e-07
1.989148118e-07
2.114213523e-07
2.233016155e-07
2.346423549e-07
2.455123143e-07
2.559671774e-07
2.660529172e-07
2.758081374e-07
2.852657503e-07
2.944542037e-07
3.033983825e-07
3.121202672e-07
3.206393924e-07
3.28973129e-07
3.371368005e-07
3.451436372e-07
3.530045607e-07
3.607277599e-07
3.683180641e-07
3.757763041e-07
3.830988535e-07
3.902775122e-07
3.972998939e-07
4.041513169e-07
4.108187023e-07
4.172797169e-07
4.25774933e-07
2.965510227e-07
1.537624297e-06
3.83673699e-06
1.355220817e-05
1.458512272e-05
3.801953913e-08
7.406071057e-08
9.986740842e-08
1.211315148e-07
1.396555996e-07
1.562911837e-07
1.715222504e-07
1.856555293e-07
1.989001184e-07
2.11406271e-07
2.232863759e-07
2.346272185e-07
2.454975902e-07
2.559532416e-07
2.660402375e-07
2.757973046e-07
2.852575186e-07
2.944495389e-07
3.033985212e-07
3.121267817e-07
3.206542602e-07
3.289987946e-07
3.371762126e-07
3.452002237e-07
3.530821083e-07
3.60830196e-07
3.684490809e-07
3.759385475e-07
3.832925646e-07
3.904989025e-07
3.975392654e-07
4.04390936e-07
4.110315234e-07
4.174397779e-07
4.254901932e-07
3.037206457e-07
1.621269956e-06
4.14958938e-06
1.377775077e-05
1.485843232e-05
3.80168688e-08
7.405551237e-08
9.985995852e-08
1.21122376e-07
1.396451077e-07
1.562796018e-07
1.715098096e-07
1.856424485e-07
1.988866184e-07
2.11392586e-07
2.232727659e-07
2.346139836e-07
2.454850882e-07
2.559419108e-07
2.660306263e-07
2.757901104e-07
2.852536362e-07
2.944501235e-07
3.034050638e-07
3.121411993e-07
3.206789941e-07
3.290369094e-07
3.37231477e-07
3.452771427e-07
3.531858491e-07
3.609663168e-07
3.686230412e-07
3.761549454e-07
3.83553664e-07
3.908021908e-07
3.978746051e-07
4.047373384e-07
4.113544416e-07
4.177033678e-07
4.249523991e-07
3.439997931e-07
1.496576877e-06
4.483452548e-06
1.399090607e-05
1.511363129e-05
3.801428416e-08
7.405049604e-08
9.98528045e-08
1.21113645e-07
1.396351402e-07
1.562686695e-07
1.714981556e-07
1.856303079e-07
1.988742325e-07
2.113802151e-07
2.232607029e-07
2.346025706e-07
2.454747369e-07
2.559331293e-07
2.660240545e-07
2.757865669e-07
2.852541799e-07
2.944561319e-07
3.034183322e-07
3.121640621e-07
3.207144658e-07
3.290888363e-07
3.373046828e-07
3.453775365e-07
3.533204377e-07
3.611430215e-07
3.688501538e-07
3.764401388e-07
3.839024887e-07
3.912153304e-07
3.983435827e-07
4.0523967e-07
4.118491817e-07
4.181422566e-07
4.242281568e-07
4.289035502e-07
3.972771044e-07
4.856788369e-06
1.419198772e-05
1.535284359e-05
3.801176945e-08
7.40456298e-08
9.984590333e-08
1.211052679e-07
1.39625633e-07
1.562583127e-07
1.71487205e-07
1.856190151e-07
1.9886286e-07
2.113690505e-07
2.232500744e-07
2.345928652e-07
2.454664246e-07
2.559267946e-07
2.660204389e-07
2.757866265e-07
2.852591611e-07
2.944676705e-07
3.034385833e-07
3.121958627e-07
3.207615329e-07
3.291559953e-07
3.373981103e-07
3.455049896e-07
3.534914077e-07
3.613687058e-07
3.691430647e-07
3.768130666e-07
3.843666588e-07
3.917775523e-07
3.990012081e-07
4.059735291e-07
4.126173738e-07
4.18882032e-07
4.250450569e-07
3.878221858e-07
1.892272425e-06
5.251092746e-06
1.437826052e-05
1.557945988e-05
3.800930699e-08
7.404087806e-08
9.983920628e-08
1.210971834e-07
1.396165123e-07
1.562484456e-07
1.714768596e-07
1.856084593e-07
1.988523782e-07
2.113589583e-07
2.232407361e-07
2.345847151e-07
2.454599944e-07
2.559227509e-07
2.660196344e-07
2.757901693e-07
2.85268509e-07
2.944847562e-07
3.034659813e-07
3.122370081e-07
3.208209977e-07
3.292398219e-07
3.375141983e-07
3.456635153e-07
3.537052219e-07
3.616535928e-07
3.695176654e-07
3.772981572e-07
3.849833535e-07
3.925441376e-07
3.999280739e-07
4.070547179e-07