/*--------------------------------*- C++ -*----------------------------------*\
| =========                 |                                                 |
| \\      /  F ield         | OpenFOAM: The Open Source CFD Toolbox           |
|  \\    /   O peration     | Version:  v1912                                 |
|   \\  /    A nd           | Website:  www.openfoam.com                      |
|    \\/     M anipulation  |                                                 |
\*---------------------------------------------------------------------------*/
FoamFile
{
    version     2.0;
    format      ascii;
    class       volScalarField;
    location    "0.4";
    object      alpha.gas_0;
}
// * * * * * * * * * * * * * * * * * * * * * * * * * * * * * * * * * * * * * //

dimensions      [0 0 0 0 0 0 0];


internalField   nonuniform List<scalar> 
4800
(
1.082090891e-198
5.865185641e-199
5.183573794e-199
5.748398565e-199
6.538417062e-199
9.021163115e-199
1.365007066e-198
2.269828306e-198
4.133766234e-198
8.196422582e-198
3.820810681e-196
3.012216193e-192
2.236654559e-188
1.504082077e-184
9.217832046e-181
5.170245125e-177
2.66038857e-173
1.254804312e-169
5.410929415e-166
2.127484195e-162
7.529814802e-159
2.387096847e-155
6.003416712e-152
3.050520037e-149
3.163848204e-153
1.070565765e-140
5.586721694e-142
1.306219367e-143
1.058556006e-105
3.889804173e-105
4.708733248e-119
5.122438883e-78
4.865639682e-77
4.893638467e-77
4.80714672e-62
5.775244129e-78
2.055442909e-49
4.6111137e-65
3.583073688e-05
0.01094584986
1.632544417e-195
8.775444044e-196
7.710317137e-196
8.482869672e-196
9.563230591e-196
1.305491454e-195
1.950394549e-195
3.195719703e-195
5.723588381e-195
1.109161474e-194
4.835832724e-194
2.089552589e-190
1.548917016e-186
1.037661707e-182
6.314485763e-179
3.501436379e-175
1.76992968e-171
8.139033516e-168
3.385666681e-164
1.263327285e-160
4.13020013e-157
1.153204728e-153
1.928343291e-150
9.420790204e-148
1.865011229e-154
7.598768488e-135
2.357585256e-136
3.655727497e-140
0
2.276210209e-100
9.958943459e-119
1.620088184e-75
2.55992441e-94
3.903878835e-61
1.981784275e-59
6.514354908e-78
1.121227588e-46
4.609880133e-65
0.000181625464
0.01555033518
1.185139643e-192
6.333668019e-193
5.532647507e-193
6.038408647e-193
6.747188625e-193
9.112398084e-193
1.344070025e-192
2.169811256e-192
3.821462956e-192
7.268451837e-192
1.592135036e-191
8.860935431e-189
6.340736308e-185
4.107825116e-181
2.411148728e-177
1.285780461e-173
6.227514628e-170
2.730174804e-166
1.074488651e-162
3.745952411e-159
1.113787345e-155
2.655811347e-152
1.708480346e-149
1.436100002e-146
1.685808085e-154
4.440820167e-131
2.685722845e-132
1.514648928e-134
4.547429381e-154
8.164939713e-96
9.040479552e-115
5.122075208e-74
3.02545387e-94
1.704391185e-57
6.966211153e-57
4.437423796e-79
1.331167821e-44
8.005847533e-65
0.0004394347601
0.02096124507
5.579959025e-190
2.967016684e-190
2.576883399e-190
2.789787514e-190
3.089746029e-190
4.128020564e-190
6.011028932e-190
9.560561764e-190
1.655682582e-189
3.091308455e-189
6.214057481e-189
2.835374911e-187
1.82829262e-183
1.11369108e-179
6.116392499e-176
3.04802895e-172
1.376745783e-168
5.619461615e-165
2.05627188e-161
6.64968219e-158
1.815181851e-154
3.839578673e-151
4.921331374e-152
1.950013944e-142
1.90585032e-154
1.764400936e-129
3.119707224e-128
2.555976068e-129
0
1.055678774e-92
2.49205326e-112
2.398930826e-73
1.13414376e-94
3.368303855e-55
3.608239509e-55
1.263126401e-75
2.340779003e-43
8.523019609e-65
0.0007725916967
0.02600102415
1.921233773e-187
1.016695749e-187
8.779474832e-188
9.427553502e-188
1.034950214e-187
1.367786262e-187
1.966173522e-187
3.080866961e-187
5.246028915e-187
9.614547438e-187
1.884539456e-186
1.146331871e-185
4.696523185e-182
2.642858395e-178
1.284671975e-174
5.698475696e-171
2.266649515e-167
8.077745932e-164
2.573138732e-160
7.291807989e-157
1.76934858e-153
3.450807263e-150
4.693750019e-152
2.889983679e-139
1.954557039e-140
0
5.400148055e-123
3.267462739e-124
0
1.727558873e-90
8.646758957e-110
3.927772544e-73
5.259650176e-93
7.039690776e-54
3.619764102e-54
0
5.397169981e-43
1.660668865e-70
0.001101028199
0.03038930994
5.163362009e-185
2.719636156e-185
2.334998931e-185
2.486779707e-185
2.706120608e-185
3.537490787e-185
5.019644102e-185
7.74852908e-185
1.297220023e-184
2.333521467e-184
4.480532072e-184
1.116639749e-183
1.230980476e-180
7.438467122e-177
2.80643378e-173
1.102070346e-169
3.75769276e-166
1.097551798e-162
2.699460322e-159
5.510627088e-156
8.884256395e-153
1.288603692e-149
4.684874778e-152
1.429365461e-137
2.374559901e-138
1.074348406e-157
7.857090185e-119
4.465547683e-120
2.091473401e-139
6.009091627e-88
6.85343801e-108
4.164361302e-73
0
3.728801698e-53
4.347539687e-54
0
5.417144808e-43
1.055017196e-67
0.001459030517
0.0340866218
1.128369181e-182
5.915765674e-183
5.049820869e-183
5.333491234e-183
5.75351452e-183
7.43870738e-183
1.041890575e-182
1.584293519e-182
2.607531803e-182
4.603448002e-182
8.661166988e-182
1.762808096e-181
2.992272715e-179
3.86859338e-175
6.194142297e-172
2.296555974e-168
7.282754374e-165
1.9260129e-161
4.066777275e-158
6.309730809e-155
4.779716778e-152
1.820591619e-150
4.709194899e-152
6.371881056e-137
8.086087975e-136
6.199886646e-155
1.944004055e-116
1.955778131e-117
8.704101657e-137
3.357736604e-85
0
4.589467894e-73
6.577190646e-92
4.060846761e-53
5.453224086e-72
4.752167845e-46
5.410379107e-43
1.699649756e-65
0.001833090901
0.03723314535
2.061979683e-180
1.07603591e-180
9.132074573e-181
9.564292022e-181
1.022842288e-180
1.307825325e-180
1.807951161e-180
2.707876658e-180
4.380986946e-180
7.589658208e-180
1.399072091e-179
2.711665099e-179
5.803187872e-178
4.404000538e-173
1.084877919e-170
3.902033927e-167
1.20148871e-163
3.089573232e-160
6.369069659e-157
9.734941335e-154
6.904282076e-151
1.375361877e-151
1.486581073e-146
3.336407771e-149
9.421309307e-132
0
1.873725972e-115
1.284228357e-114
4.599610481e-134
2.05539328e-83
4.983388361e-106
1.297169437e-72
1.760396678e-93
4.056988524e-53
1.227720799e-72
1.511254227e-45
5.403280075e-43
2.10061299e-64
0.002201455028
0.03985219423
3.215358605e-178
1.670133621e-178
1.409151216e-178
1.463346427e-178
1.551518289e-178
1.961667419e-178
2.676259041e-178
3.94771766e-178
6.277274104e-178
1.066947423e-177
1.926630361e-177
3.640304189e-177
1.035479022e-176
6.057694514e-171
1.362435116e-169
4.720687272e-166
1.416161847e-162
3.560457391e-159
7.232803994e-156
1.106427934e-152
7.338436436e-150
5.701438654e-151
5.983921663e-144
3.178983804e-157
5.130262771e-129
1.183397157e-129
0
6.474676544e-110
1.361572068e-128
2.39504109e-82
1.60575346e-103
2.8718372e-72
5.572041752e-96
4.058962274e-53
0
1.912302658e-45
3.93017112e-43
1.102149842e-64
0.002482637416
0.04207009416
4.344287963e-176
2.246021075e-176
1.883926759e-176
1.939588642e-176
2.038855752e-176
2.54869527e-176
3.431025806e-176
4.983646249e-176
7.786968026e-176
1.298288344e-175
2.295937764e-175
4.241197792e-175
3.378992706e-175
7.538728627e-169
1.324484682e-168
3.925170707e-165
1.155133722e-161
2.869991459e-158
5.840648075e-155
9.156308181e-152
5.553260338e-149
7.325406083e-151
2.984645485e-142
3.235361014e-157
2.487927762e-127
7.281966469e-128
1.368298077e-148
2.785133891e-105
4.169874276e-124
8.478692331e-82
4.338231018e-112
2.881613488e-72
7.314086968e-94
3.503848096e-53
0
1.620776194e-45
1.426567295e-43
0
0.002899329443
0.04394405623
5.146342209e-174
2.648214547e-174
2.208080144e-174
2.253472041e-174
2.34854392e-174
2.902074006e-174
3.854215792e-174
5.511567266e-174
8.460361297e-174
1.383308781e-173
2.395128246e-173
4.326324437e-173
2.109673893e-173
8.187698973e-167
2.48229825e-167
2.106320848e-164
6.181553245e-161
1.554614855e-157
3.274480423e-154
5.465517263e-151
2.909784189e-148
8.4087371e-151
2.522734373e-141
3.177030585e-157
2.026742213e-126
5.853055945e-127
4.074848928e-147
9.299216907e-101
9.673109914e-120
9.082199825e-82
1.920299486e-103
2.881455826e-72
5.623605189e-96
1.775792457e-53
8.833078449e-75
7.135410361e-46
1.826152397e-44
0
0.003363781338
0.04559211008
5.395649869e-172
2.763267128e-172
2.290035509e-172
2.31625517e-172
2.393264321e-172
2.922609358e-172
3.828404901e-172
5.388481904e-172
8.123741527e-172
1.302281217e-171
2.207098306e-171
3.897874516e-171
1.388995237e-171
7.781423513e-165
1.727664113e-165
6.725974905e-164
2.040544274e-160
5.483915804e-157
1.265910799e-153
2.353799704e-150
1.050148142e-147
1.063764702e-150
4.535180825e-141
3.23675685e-157
3.452906322e-126
1.379641331e-126
4.507240242e-146
1.688307668e-97
1.282697498e-116
9.087116361e-82
0
2.357055378e-72
1.485206904e-94
3.698776443e-54
2.631585853e-74
1.103372154e-46
5.783402086e-46
0
0.003829862563
0.04709765708
5.044453568e-170
2.57065755e-170
2.117075249e-170
2.121665897e-170
2.173257806e-170
2.621985504e-170
3.386714683e-170
4.690510958e-170
6.943285191e-170
1.091007436e-169
1.809452696e-169
3.124101964e-169
8.296206184e-170
6.502174816e-163
1.385448099e-163
1.776775838e-163
4.53054961e-160
1.374217953e-156
3.573496978e-153
7.334481581e-150
2.96420118e-147
1.697016928e-150
4.540375795e-141
3.180295385e-157
3.455192188e-126
1.674501602e-126
1.016845075e-145
2.323286879e-95
2.016805777e-118
8.678848544e-82
5.485215034e-105
9.074338481e-73
0
2.154318957e-55
2.229077882e-75
4.283158993e-48
5.447441818e-49
0
0.004290770148
0.04852711748
4.230747023e-168
2.144691709e-168
1.754715417e-168
1.741837627e-168
1.768607275e-168
2.10737149e-168
2.683278914e-168
3.655830782e-168
5.312203632e-168
8.180179187e-168
1.327382118e-167
2.240329677e-167
4.481364912e-168
4.792907812e-161
9.931815583e-162
3.256061301e-162
1.092599662e-159
2.960631851e-156
7.336019026e-153
1.468565737e-149
5.758549602e-147
4.238571963e-150
4.464856353e-141
3.242356312e-157
3.381003789e-126
1.522201e-126
7.794963194e-146
4.391655048e-94
2.582687476e-118
5.761380326e-82
1.269778902e-102
4.723435512e-74
6.346754745e-75
1.468868948e-57
0
2.767549997e-50
6.454280863e-69
3.924643632e-07
0.004755762676
0.04993475909
3.198175766e-166
1.611979519e-166
1.309758854e-166
1.287354592e-166
1.295592361e-166
1.524115967e-166
1.912512523e-166
2.562759498e-166
3.654704477e-166
5.514423948e-166
8.753300628e-166
1.444069984e-165
2.216996802e-166
3.121444624e-159
6.298461511e-160
1.688992717e-160
2.996512436e-159
3.051954279e-156
4.571572663e-153
8.768683531e-150
5.286594554e-147
3.608918374e-147
2.828780181e-141
9.541797892e-148
2.15395145e-126
9.107431931e-127
1.597317884e-148
1.900617517e-93
0
2.117153923e-82
0
1.490781622e-76
8.804296022e-65
8.778669804e-73
2.854027414e-54
2.380963436e-53
2.531712003e-72
1.717959289e-06
0.005232208822
0.05136323751
2.186826357e-164
1.095214983e-164
8.833654033e-165
8.594090162e-165
8.57214993e-165
9.952875666e-165
1.230586913e-164
1.621580318e-164
2.269248532e-164
3.354608357e-164
5.208016172e-164
8.396806157e-164
1.020243466e-164
1.795245947e-157
3.527041669e-158
8.763008266e-159
4.25879406e-158
2.115998319e-155
5.537605734e-153
1.595705538e-150
2.944227082e-147
5.901327587e-144
6.80076094e-156
1.401302121e-129
5.966699816e-127
2.4752339e-127
3.138311796e-146
2.348715245e-93
7.214646982e-114
7.509798674e-83
2.959898922e-83
1.523618618e-102
6.813394758e-65
1.859220888e-86
2.42462759e-54
6.772533186e-55
2.303642947e-74
3.945105498e-06
0.005722467701
0.0528431074
1.355882647e-162
6.742407535e-163
5.396334934e-163
5.195065366e-163
5.13589105e-163
5.884351863e-163
7.168092614e-163
9.288194325e-163
1.275378008e-162
1.846932637e-162
2.803576921e-162
4.415837788e-162
4.448532564e-163
9.091135435e-156
1.738999632e-156
4.105668301e-157
7.464000964e-157
2.74294885e-154
5.81832021e-152
2.30788145e-150
1.532703488e-147
5.946742874e-144
1.404129963e-162
9.815841304e-126
3.555922406e-126
2.182684528e-127
2.675306359e-147
2.348457344e-93
7.844862889e-113
5.680571856e-83
2.68354137e-83
0
1.720123761e-65
7.487642685e-88
6.622163693e-55
9.782989929e-56
0
7.019419738e-06
0.006225795107
0.05439314841
7.634042899e-161
3.766845199e-161
2.99094545e-161
2.84895153e-161
2.792075123e-161
3.156534785e-161
3.788496476e-161
4.827158746e-161
6.502886364e-161
9.222227563e-161
1.367988104e-160
2.103390609e-160
1.877704974e-161
4.029415566e-154
7.525605649e-155
1.724002899e-155
1.474262416e-155
3.102713416e-153
5.647592713e-151
1.345872649e-149
5.636695533e-148
5.941467904e-144
5.338868083e-164
3.22048615e-123
1.04833607e-123
3.997301138e-125
3.215927558e-145
2.051558165e-93
3.01222468e-112
4.544440242e-83
1.513433331e-83
0
8.558659638e-67
0
3.354591419e-56
4.863889902e-57
1.129134708e-75
1.111000412e-05
0.006741025533
0.05602092669
3.90548229e-159
1.91171188e-159
1.506042307e-159
1.41954605e-159
1.379632694e-159
1.539108291e-159
1.820073435e-159
2.280087498e-159
3.012344637e-159
4.180652548e-159
6.053858771e-159
9.07590426e-159
7.85679621e-160
1.549200864e-152
2.855731487e-153
6.457340699e-154
3.394416112e-154
3.038443027e-152
4.618296326e-150
5.910413373e-149
2.306880166e-147
5.934843668e-144
0
1.199265096e-121
3.950632599e-122
1.448357615e-123
7.515878975e-144
1.045810167e-93
3.235818594e-113
2.643070213e-83
2.654870877e-84
2.953956356e-102
5.45115405e-69
1.280614958e-90
1.964593429e-58
3.589710209e-59
5.351174145e-84
1.639203495e-05
0.007269063183
0.05772464803
1.81564722e-157
8.820954402e-158
6.897898862e-158
6.435672091e-158
6.205255944e-158
6.83078591e-158
7.957126959e-158
9.795174972e-158
1.267929737e-157
1.71973441e-157
2.427235232e-157
3.542641184e-157
3.330016394e-158
5.121182068e-151
9.552978307e-152
2.145971828e-152
8.291357878e-153
2.589105576e-151
3.122099438e-149
1.696252319e-148
1.599698513e-146
5.244291946e-144
2.818717693e-165
9.126198037e-121
3.08500647e-121
1.124521379e-122
1.415038858e-141
2.144440834e-94
1.301646391e-113
8.014838075e-84
0
2.194909787e-73
3.114640687e-72
0
8.939289001e-62
2.322788161e-62
5.200504444e-91
2.268905934e-05
0.007810534564
0.05949568565
7.672046969e-156
3.704419272e-156
2.87739724e-156
2.657781829e-156
2.542738991e-156
2.760485251e-156
3.164810533e-156
3.822965453e-156
4.840026956e-156
6.402611021e-156
8.791376661e-156
1.247554021e-155
1.442534711e-156
1.464228636e-149
2.854975092e-150
6.319076602e-151
1.924088626e-151
1.971162289e-150
1.697232979e-148
2.26036663e-148
2.744762343e-144
4.327304515e-143
3.327444281e-162
2.424242301e-120
8.063854935e-121
2.656865755e-122
2.664564708e-139
1.199081774e-95
0
8.916619074e-85
5.504593051e-107
1.372311832e-73
0
2.923890093e-68
3.316531855e-66
1.045273928e-66
5.340899926e-91
2.968190502e-05
0.008364444271
0.06132096068
2.949330948e-154
1.417689364e-154
1.094030891e-154
9.998399533e-155
9.484878497e-155
1.013889861e-154
1.141717038e-154
1.350068399e-154
1.66752493e-154
2.14659284e-154
2.863875642e-154
3.951733567e-154
6.297095805e-155
3.857629705e-148
7.643906959e-149
1.703163183e-149
4.02635912e-150
1.451010431e-149
7.132069198e-148
1.267844406e-151
5.408587841e-141
1.098738256e-140
4.81680886e-160
3.863262811e-120
1.092940268e-120
4.026972975e-122
6.531264257e-109
1.21291405e-97
6.675895846e-122
2.453455067e-86
1.466723011e-105
1.988808681e-74
1.005844665e-98
1.919057699e-68
4.231911945e-69
3.626334598e-70
0
3.72731831e-05
0.008927323766
0.06318497318
1.033299159e-152
4.944928486e-153
3.785342352e-153
3.414920392e-153
3.205258953e-153
3.363160101e-153
3.708038708e-153
4.279085849e-153
5.144369603e-153
6.438999258e-153
8.358636363e-153
1.125128206e-152
2.674654206e-153
1.074160027e-146
1.706628689e-147
4.858151802e-148
7.724186725e-149
1.204529979e-148
2.205227597e-147
1.345319677e-153
1.515711529e-138
5.409051593e-139
0
1.311215612e-119
2.025698659e-120
1.23255438e-121
5.707766517e-102
5.874979403e-111
6.525025618e-93
1.114563933e-88
1.465304207e-105
3.785098294e-76
4.212324765e-101
2.840970475e-69
2.456997029e-70
7.876415569e-72
3.658727104e-99
4.54690979e-05
0.009494121026
0.06507106647
3.300472759e-151
1.56467915e-151
1.182458747e-151
1.048079608e-151
9.696436262e-152
9.944588026e-152
1.070080153e-151
1.203019115e-151
1.408921636e-151
1.721867245e-151
2.189984118e-151
2.894875534e-151
1.059619574e-151
4.84101231e-145
2.589758802e-146
1.762442431e-146
1.427994414e-147
1.313766881e-147
4.820049029e-147
5.480977312e-157
8.453994702e-135
2.294296267e-136
9.117204736e-156
2.962651389e-119
4.407713242e-120
4.001781202e-139
3.752639136e-102
2.600464864e-110
4.308181411e-92
3.563414511e-90
6.467415964e-112
6.013208959e-79
0
5.259870052e-71
4.238627583e-72
1.081230578e-73
3.635792612e-97
5.438821132e-05
0.01006638206
0.06696246943
9.5371224e-150
4.419851138e-150
3.269904836e-150
2.829488373e-150
2.569748697e-150
2.568806898e-150
2.699667987e-150
2.972263284e-150
3.42746613e-150
4.147698214e-150
5.22855611e-150
6.803593604e-150
3.756875866e-150
1.166860525e-143
3.406936948e-142
2.8090135e-144
2.182947387e-146
1.863791229e-146
1.033068568e-146
2.770199767e-161
7.064552637e-130
1.47550977e-131
1.491352471e-150
2.967025017e-119
1.794017369e-119
5.757761509e-139
6.33710589e-103
1.760148401e-104
0
2.845936261e-85
1.640655259e-83
5.733737624e-83
2.732551559e-98
2.624830818e-72
9.365240641e-74
4.628800744e-76
0
6.412169133e-05
0.01064620215
0.0688433683
2.424773409e-148
1.075876452e-148
7.721741283e-149
6.497933072e-149
5.799084954e-149
5.690659191e-149
5.936928934e-149
6.564158427e-149
7.665046308e-149
9.339744133e-149
1.161244056e-148
1.451279873e-148
1.177744861e-148
4.459441869e-150
4.480557503e-137
2.627425224e-139
4.243560692e-143
1.968912755e-144
2.084927569e-145
3.290870934e-165
5.356906577e-125
7.765776114e-127
0
2.655617555e-119
1.612326419e-117
1.792228259e-117
1.539026844e-104
2.630053022e-104
0
8.968984655e-81
1.799817361e-82
1.407977846e-83
1.858183088e-86
5.582461167e-71
2.837647456e-71
2.171959608e-72
1.450408714e-91
7.466382437e-05
0.01123236892
0.07069910952
5.093891446e-147
2.126346413e-147
1.484555821e-147
1.232984249e-147
1.109374365e-147
1.11656992e-147
1.223237874e-147
1.428331051e-147
1.711405098e-147
2.018534698e-147
2.311910662e-147
2.588365715e-147
2.508302286e-147
4.992043422e-160
5.342969047e-132
1.726082851e-134
4.249021937e-138
1.329149128e-139
1.149814705e-140
0
3.35027661e-120
2.707795471e-122
0
5.157931879e-120
1.280860401e-116
8.465715891e-110
4.225800757e-113
2.65432356e-101
0
7.448517074e-78
1.900515958e-79
1.963510484e-82
9.73917278e-93
2.353051239e-71
1.322957305e-66
1.104409258e-67
0
8.598243929e-05
0.011820312
0.07251534636
7.935550638e-146
3.238675002e-146
2.367645842e-146
2.136167118e-146
2.144245402e-146
2.463860584e-146
3.006564158e-146
3.596297242e-146
3.86275294e-146
3.696895575e-146
3.428229018e-146
3.188505139e-146
2.704121532e-146
6.168789482e-161
5.291807431e-128
2.948724e-130
4.704622939e-133
8.287328775e-135
6.149686691e-136
2.507242457e-156
5.783749163e-117
6.807035051e-119
3.223485062e-122
3.238962819e-132
1.999438404e-115
4.356645263e-110
2.197851461e-113
1.250613113e-99
9.309628159e-119
2.295657212e-76
9.063486214e-77
1.895922748e-82
4.497583519e-74
1.705586679e-89
7.411635572e-62
4.707579572e-63
0
9.804140088e-05
0.01240920405
0.07427868543
9.460986715e-145
5.672871292e-145
5.843600367e-145
7.071648753e-145
9.077228874e-145
1.349908321e-144
2.18415022e-144
3.829004609e-144
7.273873161e-144
1.495365108e-143
3.321853412e-143
7.95875548e-143
2.055923751e-142
7.21072264e-161
9.37750321e-126
9.319514363e-126
5.703862163e-128
4.765284174e-130
3.039902082e-131
8.335917524e-151
3.385333644e-115
1.381203554e-115
1.472032863e-117
2.65590407e-132
4.038588718e-110
1.351632384e-131
1.92303913e-103
4.315342187e-99
1.034333763e-101
3.931080139e-76
3.883274709e-72
1.425084857e-73
2.381315584e-70
0
4.011191368e-57
1.468446441e-58
0
0.0001108587414
0.01299944696
0.07597834596
4.161543269e-140
4.462944608e-140
5.502256524e-140
7.194967849e-140
9.584692979e-140
1.446274718e-139
2.338107556e-139
4.056663206e-139
7.579640035e-139
1.527577344e-138
3.321043215e-138
7.776253436e-138
1.95877708e-137
0
5.100545745e-125
8.82349753e-121
4.381378465e-123
2.511115961e-125
1.389479527e-126
0
1.134843701e-114
8.822494142e-111
8.643165636e-113
2.090740108e-132
8.698080884e-108
0
5.095599703e-99
6.556881011e-114
2.715586544e-83
8.079209759e-94
2.16691468e-68
5.237317164e-70
3.754880711e-68
0
7.31683355e-54
2.15852932e-55
5.88507843e-75
0.0001243968195
0.01359422954
0.07761024625
4.538444066e-135
4.846117544e-135
5.93743348e-135
7.693009276e-135
1.018138638e-134
1.51675744e-134
2.41724992e-134
4.126574618e-134
7.571040707e-134
1.495394517e-133
3.180718299e-133
7.275373299e-133
1.786194434e-132
4.600485481e-132
0
7.326202055e-116
1.964525165e-118
1.204876716e-120
5.855939693e-122
2.276733199e-121
6.802202675e-133
2.705254547e-107
2.290525646e-109
5.107032549e-125
1.532040353e-106
8.68874212e-126
1.986007739e-95
0
8.654701433e-79
5.193388116e-94
4.996733101e-66
1.488913399e-67
2.907720389e-67
2.290678209e-86
5.227808603e-52
2.692337205e-53
8.926870355e-73
0.0001385477773
0.01419416183
0.07918062664
4.761599705e-130
5.062141793e-130
6.162858447e-130
7.911442863e-130
1.039965032e-129
1.529216434e-129
2.4018653e-129
4.033120728e-129
7.26328432e-129
1.405381996e-128
2.92316591e-128
6.528110624e-128
1.562666151e-127
4.016315404e-127
4.381130497e-147
3.366349094e-112
1.260319471e-114
5.23804649e-116
2.264092349e-117
8.979529264e-117
0
2.788150467e-105
4.550813774e-107
8.033508474e-107
3.981967977e-106
0
5.731183437e-93
0
1.418490842e-75
3.985783065e-78
5.778971599e-65
2.884873076e-65
3.453027731e-67
8.770709393e-57
2.701023545e-51
6.048734527e-51
6.281482524e-70
0.000153239339
0.01480277815
0.08070905464
4.813971835e-125
5.095119339e-125
6.163155511e-125
7.838282578e-125
1.023109879e-124
1.484629194e-124
2.29748754e-124
3.793397599e-124
6.703199413e-124
1.270033136e-123
2.58195311e-123
5.626619016e-123
1.312448824e-122
3.281507532e-122
0
4.417438025e-110
5.797582751e-111
2.047106146e-111
7.934498546e-113
3.036858227e-112
2.566027109e-140
1.795375638e-104
1.397746259e-103
2.702032099e-102
3.989073903e-106
7.350990481e-94
1.940532825e-91
2.9496752e-111
1.620295801e-73
2.662004804e-78
1.481451099e-65
1.124210291e-60
2.921095678e-67
6.436583533e-52
2.710585273e-52
1.960907979e-46
3.665825901e-65
0.0001682728783
0.01541947312
0.08222779233
4.69751706e-120
4.949519603e-120
5.947991888e-120
7.493813571e-120
9.710085491e-120
1.390175466e-119
2.119048178e-119
3.439180553e-119
5.960788534e-119
1.105386553e-118
2.195329908e-118
4.665699598e-118
1.059837657e-117
2.576284728e-117
1.924505864e-130
3.143342656e-109
2.197008557e-106
7.03581037e-107
2.404084481e-108
9.204170574e-108
4.863651007e-108
1.812605162e-109
3.427427354e-99
8.538370069e-98
3.995855693e-106
1.812442567e-91
1.303611909e-90
2.56794151e-111
2.069663011e-72
1.413437208e-73
1.721363441e-85
6.498682861e-57
2.932676565e-67
4.891915067e-50
2.828065237e-52
1.46217522e-42
0
0.0001846005042
0.01604748848
0.08378025057
4.431625415e-115
4.648067626e-115
5.548750708e-115
6.924930559e-115
8.904897332e-115
1.257573383e-114
1.887649042e-114
3.010436509e-114
5.115686521e-114
9.28098764e-114
1.799717363e-113
3.728066699e-113
8.241669108e-113
1.946727464e-112
4.840090071e-112
5.542063429e-116
5.340015256e-103
2.041552827e-102
6.412896583e-104
2.459588415e-103
1.623268912e-103
1.980560792e-109
5.001447711e-96
7.651525989e-94
3.987787578e-106
4.889853767e-90
2.892465035e-90
1.097556002e-109
4.740256866e-72
4.677566102e-73
9.389020384e-93
1.697842067e-54
2.921056518e-67
3.791170624e-49
2.710585273e-52
6.953426775e-40
6.658612235e-60
0.0002021499333
0.01668557421
0.08541639934
4.048670186e-110
4.22675088e-110
5.011861539e-110
6.195574718e-110
7.904154256e-110
1.100847084e-109
1.626720171e-109
2.548411411e-109
4.244226204e-109
7.529521521e-109
1.424847453e-108
2.875057469e-108
6.181554505e-108
1.418383626e-107
3.484654367e-107
8.135077773e-121
8.395311006e-101
7.658501194e-99
1.327781557e-99
5.644717068e-99
3.64494221e-99
1.81260516e-109
6.023111981e-94
4.732075986e-91
3.67201834e-91
2.896916865e-89
3.338872228e-90
2.881370323e-109
4.746354528e-72
5.546452604e-73
3.618801008e-92
3.003405437e-53
4.584660235e-52
5.367755025e-49
2.828065226e-52
3.209454705e-38
4.448884022e-58
0.0002203928412
0.01733292753
0.08718272301
3.587597392e-105
3.7280244e-105
4.390445631e-105
5.375714454e-105
6.801881962e-105
9.340752856e-105
1.358463644e-104
2.08981325e-104
3.409720042e-104
5.912379303e-104
1.091227339e-103
2.143484777e-103
4.479097281e-103
9.976243476e-103
2.375918912e-102
6.003585218e-102
2.310695576e-99
2.444398687e-96
2.329056962e-95
1.069788295e-94
7.020741308e-95
1.981371342e-109
1.173919574e-92
3.271135578e-89
1.29559782e-88
7.498517602e-89
4.7910076e-91
9.0921455e-104
4.236209542e-72
4.494000902e-73
0
6.322147092e-53
1.483373946e-49
5.381536127e-49
2.710585281e-52
2.370059196e-37
0
0.00023943505
0.01798468546
0.08911114437
3.088760121e-100
3.19468629e-100
3.73647861e-100
4.531316805e-100
5.684466955e-100
7.695601425e-100
1.10121966e-99
1.662996082e-99
2.65712567e-99
4.501162535e-99
8.09816208e-99
1.547534188e-98
3.140650098e-98
6.784680252e-98
1.565305451e-97
3.847462259e-97
1.003980968e-96
1.779998162e-94
6.971499904e-92
1.488437122e-90
1.103642057e-90
6.709320848e-93
1.154615814e-91
4.8879561e-88
7.30772678e-87
2.390814131e-88
0
1.642612429e-75
1.854104218e-72
8.3027296e-73
3.791744627e-75
1.530769643e-71
2.615622025e-48
5.57504803e-49
2.828076973e-52
4.335589245e-37
5.518083215e-58
0.0002592951343
0.01863595502
0.09120927631
2.588284602e-95
2.664515893e-95
3.094721318e-95
3.717152537e-95
4.621612899e-95
6.166947421e-95
8.680702272e-95
1.286429665e-94
2.012072857e-94
3.328264523e-94
5.833653114e-94
1.083819043e-93
2.134637143e-93
4.468928145e-93
9.97727514e-93
2.370501491e-92
5.960182891e-92
1.665806717e-91
3.668533126e-89
2.75487531e-87
7.346010631e-87
7.446296427e-89
9.033137649e-89
4.385058156e-87
1.68004366e-85
2.2631032e-86
0
3.136503604e-75
3.689002312e-73
2.64218919e-70
9.221748288e-73
3.797289212e-63
5.413632192e-48
2.982801431e-45
1.203236573e-39
4.336118935e-37
0
0.0002800678415
0.01927956703
0.0934522679
2.114744396e-90
2.166860378e-90
2.49900126e-90
2.972881179e-90
3.661966439e-90
4.815522786e-90
6.66610515e-90
9.691132409e-90
1.483187882e-89
2.394544132e-89
4.086527256e-89
7.376306319e-89
1.408837717e-88
2.85578093e-88
6.163668919e-88
1.413571845e-87
3.431631584e-87
9.006347541e-87
3.093911401e-86
1.281945344e-84
8.999101182e-84
1.310202685e-84
3.875657728e-84
1.757427807e-83
9.232957972e-83
5.874659781e-82
0
2.236084197e-75
1.165019939e-72
1.310330412e-68
3.35966523e-71
8.7071785e-55
1.679030734e-60
3.280432794e-41
5.756508747e-39
4.337198811e-37
0
0.0003020600362
0.01991090753
0.09578081869
1.687734652e-85
1.721327827e-85
1.971032584e-85
2.32233572e-85
2.832961903e-85
3.670754144e-85
4.995990692e-85
7.12284589e-85
1.066268333e-84
1.679328075e-84
2.788815028e-84
4.88732321e-84
9.044870737e-84
1.773561007e-83
3.69667711e-83
8.173653675e-83
1.912685267e-82
4.834188686e-82
1.317576072e-81
4.074158142e-81
1.547271963e-80
4.447045047e-80
1.679484091e-79
7.344850863e-79
3.663333086e-78
2.136669271e-77
1.514843787e-76
1.403488588e-76
5.164617998e-71
1.371043019e-67
2.518467947e-71
1.515744068e-56
1.205766624e-70
3.450519556e-40
1.625015012e-38
3.190625809e-37
4.765222877e-58
0.0003253529092
0.02052856762
0.09810912363
1.318073439e-80
1.338208074e-80
1.521279875e-80
1.775252098e-80
2.143727513e-80
2.736573285e-80
3.661060424e-80
5.117147292e-80
7.489622052e-80
1.150165679e-79
1.857538329e-79
3.158257764e-79
5.658883736e-79
1.07233272e-78
2.15608152e-78
4.590522463e-78
1.033622616e-77
2.510740058e-77
6.568549638e-77
1.854120984e-76
5.669207596e-76
1.894585829e-75
7.069154943e-75
2.973814925e-74
1.434958619e-73
8.132098937e-73
5.632381722e-72
5.026322125e-71
1.548219165e-69
7.388747551e-67
1.732224408e-65
2.923329126e-76
1.460974776e-43
1.054188703e-39
2.60217373e-38
1.218325658e-37
8.230822294e-64
0.0003499147855
0.02113522976
0.1003428507
1.009135067e-75
1.020041776e-75
1.15110881e-75
1.330413866e-75
1.589628748e-75
1.998930869e-75
2.628023652e-75
3.599983065e-75
5.14967902e-75
7.707286895e-75
1.209792867e-74
1.994186064e-74
3.45646966e-74
6.323284481e-74
1.225017451e-73
2.508214135e-73
5.425848938e-73
1.2642607e-72
3.169168965e-72
8.561328436e-72
2.50259958e-71
8.004068523e-71
2.86287395e-70
1.156045098e-69
5.374946586e-69
2.950539723e-68
1.992187104e-67
1.751738657e-66
2.1979656e-65
4.560085548e-64
1.662464133e-62
3.5290613e-78
5.787658525e-43
1.476754e-39
2.589991144e-38
1.959489329e-38
7.655829636e-62
0.0003751330752
0.02173262815
0.1024022272
7.587529335e-71
7.637261441e-71
8.554656516e-71
9.792424867e-71
1.157170836e-70
1.433209788e-70
1.851286957e-70
2.484612956e-70
3.472300313e-70
5.062338058e-70
7.718494622e-70
1.232583513e-69
2.064863971e-69
3.642944837e-69
6.791834901e-69
1.335478097e-68
2.770972818e-68
6.182016525e-68
1.481727709e-67
3.822494002e-67
1.066396561e-66
3.256921181e-66
1.113296998e-65
4.304754441e-65
1.922983895e-64
1.019839667e-63
6.697613851e-63
5.798199144e-62
7.370941099e-61
1.595317312e-59
6.344751692e-58
4.471605517e-78
8.052441167e-43
1.014090216e-39
1.848755834e-38
2.396545943e-39
4.739590796e-60
0.0003993829481
0.02232092215
0.1042414785
5.612080056e-66
5.62649848e-66
6.254866594e-66
7.091147374e-66
8.283595519e-66
1.010395191e-65
1.28201228e-65
1.685230507e-65
2.300026596e-65
3.264949372e-65
4.832535522e-65
7.470932945e-65
1.208590616e-64
2.05409545e-64
3.680813644e-64
6.940597986e-64
1.378911929e-63
2.939762891e-63
6.722157394e-63
1.652089297e-62
4.387593475e-62
1.276107631e-61
4.157094334e-61
1.534815599e-60
6.568480787e-60
3.356224506e-59
2.139991471e-58
1.829570869e-57
2.381208157e-56
5.384600396e-55
2.319959651e-53
4.975703334e-65
5.173032094e-43
3.294781272e-40
6.438719777e-39
6.768042609e-40
2.311378751e-59
0.0004185152565
0.02289326248
0.1058526656
4.089720758e-61
4.085224337e-61
4.506646854e-61
5.059990425e-61
5.840488953e-61
7.015146612e-61
8.741479761e-61
1.125150833e-60
1.499149383e-60
2.071125176e-60
2.974261453e-60
4.448279294e-60
6.943074117e-60
1.135533346e-59
1.953245356e-59
3.526729644e-59
6.696980971e-59
1.361567031e-58
2.963243758e-58
6.92043546e-58
1.744863693e-57
4.818327438e-57
1.491259388e-56
5.240494871e-56
2.141865711e-55
1.051183445e-54
6.499112824e-54
5.518062569e-53
7.407787236e-52
1.745250887e-50
8.153728219e-49
5.297581245e-47
2.23661346e-43
7.28069689e-41