/*--------------------------------*- C++ -*----------------------------------*\
| =========                 |                                                 |
| \\      /  F ield         | OpenFOAM: The Open Source CFD Toolbox           |
|  \\    /   O peration     | Version:  v1912                                 |
|   \\  /    A nd           | Website:  www.openfoam.com                      |
|    \\/     M anipulation  |                                                 |
\*---------------------------------------------------------------------------*/
FoamFile
{
    version     2.0;
    format      ascii;
    class       volScalarField;
    location    "0.4";
    object      alpha.gas;
}
// * * * * * * * * * * * * * * * * * * * * * * * * * * * * * * * * * * * * * //

dimensions      [0 0 0 0 0 0 0];


internalField   nonuniform List<scalar> 
4800
(
1.532219265e-198
8.300859539e-199
7.33042029e-199
8.119714415e-199
9.226654429e-199
1.271513597e-198
1.9212352e-198
3.189383848e-198
5.797165575e-198
1.14551698e-197
3.951517906e-196
3.06388602e-192
2.275235328e-188
1.53013468e-184
9.377704145e-181
5.259660217e-177
2.705972718e-173
1.275936066e-169
5.499460954e-166
2.160693903e-162
7.638570658e-159
2.417282868e-155
6.05097869e-152
3.073429684e-149
2.919064426e-153
1.174105804e-140
6.280833579e-142
0
1.036962932e-105
3.865359223e-105
6.784342397e-119
5.041170418e-78
4.779487257e-77
4.807996769e-77
4.720940604e-62
6.51185982e-78
2.018410083e-49
4.612523854e-65
3.587232296e-05
0.01094223137
2.292615657e-195
1.231654795e-195
1.081298855e-195
1.188255315e-195
1.338339067e-195
1.824854909e-195
2.722557054e-195
4.453584701e-195
7.961353553e-195
1.539521742e-194
5.778516598e-194
2.133871298e-190
1.580864579e-186
1.058533125e-182
6.438027123e-179
3.567863252e-175
1.802356601e-171
8.282213849e-168
3.442353193e-164
1.283167683e-160
4.189179333e-157
1.167117656e-153
1.935354676e-150
9.468357785e-148
1.868716618e-154
8.078939496e-135
2.574458571e-136
0
5.137673634e-124
2.249152473e-100
1.626411602e-118
1.579120436e-75
3.936142235e-94
3.820076984e-61
1.931908625e-59
1.496317292e-78
1.093089142e-46
4.615033819e-65
0.0001814972968
0.01554709464
1.650310097e-192
8.814207313e-193
7.693272207e-193
8.386761009e-193
9.362836048e-193
1.263040093e-192
1.860461682e-192
2.998656171e-192
5.271497067e-192
1.000619138e-191
2.148605788e-191
9.074436603e-189
6.47804335e-185
4.192088089e-181
2.457714977e-177
1.309120767e-173
6.33343751e-170
2.773555569e-166
1.090390475e-162
3.797362174e-159
1.127767693e-155
2.685025584e-152
1.705118269e-149
1.436138618e-146
1.689583763e-154
4.468139843e-131
2.786489947e-132
1.676906267e-134
0
7.985852401e-96
3.47496906e-115
4.999585209e-74
3.026743998e-94
1.663774303e-57
6.811628642e-57
2.572239093e-75
1.304036809e-44
8.014530503e-65
0.0004390131122
0.02095986042
7.703932703e-190
4.093693646e-190
3.552535482e-190
3.841581099e-190
4.251029521e-190
5.67311127e-190
8.25007229e-190
1.310141444e-189
2.26482033e-189
4.220335287e-189
8.453991064e-189
2.957305989e-187
1.875220026e-183
1.140398507e-179
6.246283996e-176
3.105809889e-172
1.399717447e-168
5.700919644e-165
2.081953155e-161
6.721331616e-158
1.832223456e-154
3.872229221e-151
4.925052159e-152
1.963491132e-142
1.911159899e-154
1.728936658e-129
3.388873583e-128
2.827763812e-129
0
1.025671908e-92
3.788941667e-112
2.362019605e-73
1.210263306e-94
3.286852321e-55
3.563343345e-55
0
2.302710864e-43
8.523019659e-65
0.0007714534583
0.02600353344
2.629718293e-187
1.390654014e-187
1.199900098e-187
1.286986283e-187
1.411717396e-187
1.863647561e-187
2.675546597e-187
4.186098486e-187
7.115588986e-187
1.301607063e-186
2.54573558e-186
1.307767975e-185
4.850101756e-182
2.740242287e-178
1.320271436e-174
5.839039569e-171
2.314629076e-167
8.216871686e-164
2.606553059e-160
7.356191116e-157
1.778381931e-153
3.461589751e-150
4.697589596e-152
2.854866138e-139
1.986214323e-140
0
5.764827971e-123
3.553166931e-124
0
1.680025576e-90
9.823395684e-110
3.90468926e-73
5.257551823e-93
6.908653877e-54
3.593541866e-54
1.825941825e-72
5.362871712e-43
3.980769744e-70
0.001099152037
0.03039864846
7.006055253e-185
3.687565966e-185
3.163489685e-185
3.365271294e-185
3.659360132e-185
4.778373215e-185
6.772021341e-185
1.043829846e-184
1.744569182e-184
3.132409503e-184
6.002391249e-184
1.428857229e-183
1.275447347e-180
8.110099792e-177
2.900387492e-173
1.137268566e-169
3.87034803e-166
1.127543859e-162
2.76281991e-159
5.607161243e-156
8.946547232e-153
1.285522992e-149
4.688862222e-152
1.403485837e-137
2.353186693e-138
1.075228486e-159
8.011932331e-119
4.632264845e-120
0
5.944468332e-88
6.85371021e-108
4.150870864e-73
0
3.698476564e-53
4.50591331e-54
0
5.38423587e-43
1.429729787e-67
0.001460538218
0.03410087262
1.517644988e-182
7.950803383e-183
6.781580311e-183
7.154434487e-183
7.712484051e-183
9.960802495e-183
1.393458701e-182
2.115876334e-182
3.476695592e-182
6.126772723e-182
1.150473769e-181
2.321016371e-181
3.091916558e-179
4.812129821e-175
6.382815435e-172
2.365162344e-168
7.496396189e-165
1.981575826e-161
4.18265411e-158
6.489057446e-155
4.907652082e-152
1.81581213e-150
4.713256504e-152
6.275260509e-137
8.237134252e-136
1.027884552e-155
1.92866036e-116
1.971695787e-117
3.28530891e-136
3.302182878e-85
0
4.575355093e-73
0
4.043589661e-53
0
4.442467339e-46
5.38117946e-43
1.752853426e-65
0.001833209488
0.03725570025
2.748838243e-180
1.433407113e-180
1.215548556e-180
1.271658405e-180
1.359080298e-180
1.735919045e-180
2.39692283e-180
3.585040171e-180
5.79075491e-180
1.001415136e-179
1.842471249e-179
3.560872275e-179
6.01109987e-178
5.887903143e-173
1.111252563e-170
3.993988692e-167
1.229346912e-163
3.160328087e-160
6.51439794e-157
9.960186071e-154
7.054001528e-151
1.402768308e-151
1.48606995e-146
3.292597864e-149
9.416766388e-132
0
1.838482563e-115
1.334869903e-114
5.692441609e-134
2.016221208e-83
0
1.281322166e-72
1.760416701e-93
4.039810824e-53
5.105269477e-72
1.46628346e-45
5.374370107e-43
2.10380117e-64
0.002201643824
0.03988421756
4.248248165e-178
2.205002475e-178
1.859004011e-178
1.92836672e-178
2.043327343e-178
2.580800968e-178
3.516855771e-178
5.180629371e-178
8.224672689e-178
1.395516563e-177
2.515213205e-177
4.74268975e-177
1.11809555e-176
8.113599915e-171
1.391278192e-169
4.802726579e-166
1.440496464e-162
3.621468032e-159
7.358400953e-156
1.126432642e-152
7.45870681e-150
5.825579237e-151
5.914166142e-144
3.245035223e-157
5.072685633e-129
1.188960249e-129
0
6.706897285e-110
0
2.359096123e-82
1.607535489e-103
2.8588683e-72
6.233149323e-91
4.036245801e-53
6.62496762e-80
1.878443855e-45
3.940439783e-43
1.114384477e-64
0.002483562752
0.04210885386
5.688347654e-176
2.938718745e-176
2.463062856e-176
2.533047861e-176
2.661190062e-176
3.323201008e-176
4.468547392e-176
6.482001724e-176
1.01123613e-175
1.683121143e-175
2.971020782e-175
5.477851413e-175
3.96836237e-175
9.989284431e-169
1.395888335e-168
3.970198969e-165
1.168433563e-161
2.903797446e-158
5.913080615e-155
9.28027593e-152
5.616640379e-149
7.490170122e-151
2.945114196e-142
3.301460058e-157
2.455964907e-127
7.240620212e-128
1.501790584e-148
2.878145094e-105
2.290075077e-124
8.419235092e-82
3.497340323e-103
2.868257575e-72
1.454139139e-93
3.502403238e-53
3.059306268e-77
1.60584815e-45
1.449062673e-43
1.716812716e-67
0.002900379636
0.0439854588
6.677665453e-174
3.433611088e-174
2.860736788e-174
2.916328073e-174
3.037751341e-174
3.749805451e-174
4.974433146e-174
7.104118382e-174
1.088823006e-173
1.777317652e-173
3.071824473e-173
5.538633519e-173
2.536346329e-173
1.071584707e-166
3.067540955e-167
2.119685688e-164
6.22254907e-161
1.56596718e-157
3.301791842e-154
5.518718937e-151
2.930342541e-148
8.591129147e-151
2.502125498e-141
3.242813082e-157
2.01007605e-126
5.829321191e-127
4.233968061e-147
9.481852619e-101
1.274657033e-119
9.052120271e-82
1.91771238e-103
2.868585464e-72
6.16579811e-96
1.793050622e-53
8.901201753e-75
7.184797466e-46
1.890602642e-44
2.445680386e-63
0.0033644291
0.04563181608
6.93739666e-172
3.550049066e-172
2.939749364e-172
2.970094691e-172
3.067286773e-172
3.741758249e-172
4.895901043e-172
6.882042409e-172
1.035985983e-171
1.658066746e-171
2.805216011e-171
4.945732034e-171
1.666374676e-171
1.005376289e-164
2.236080267e-165
6.763416849e-164
2.048306002e-160
5.509478224e-157
1.273074136e-153
2.369355843e-150
1.054470874e-147
1.084154631e-150
4.51613386e-141
3.303594881e-157
3.437421526e-126
1.380340269e-126
4.546279993e-146
1.689560433e-97
6.502834296e-117
9.047075704e-82
0
2.358588777e-72
0
3.795169421e-54
2.632069158e-74
1.135045346e-46
6.139051184e-46
0
0.003829951588
0.04713106748
6.426198619e-170
3.272030632e-170
2.692468459e-170
2.695246696e-170
2.759441879e-170
3.325642635e-170
4.29079743e-170
5.935102628e-170
8.772817124e-170
1.37635238e-169
2.278916349e-169
3.928347192e-169
9.919058584e-170
8.28976078e-163
1.775376681e-163
1.898181825e-163
4.55227287e-160
1.379464671e-156
3.585595579e-153
7.357312312e-150
2.974311306e-147
1.723288376e-150
4.521260093e-141
3.253050788e-157
3.439976586e-126
1.681611756e-126
1.020077563e-145
2.302142241e-95
2.030473043e-118
8.663433909e-82
1.091534659e-104
9.2212224e-73
1.846045553e-91
2.262182633e-55
1.219027065e-75
4.529976957e-48
3.284850088e-66
0
0.004290010738
0.04854956423
5.339384298e-168
2.70416275e-168
2.210524992e-168
2.191768273e-168
2.224418806e-168
2.647640948e-168
3.367502549e-168
4.582439487e-168
6.649339313e-168
1.022421132e-167
1.656450579e-167
2.791530306e-167
5.34812707e-168
6.026737577e-161
1.255867075e-161
3.961962434e-162
1.099931314e-159
2.960584349e-156
7.322981944e-153
1.465525791e-149
5.750555729e-147
4.257717341e-150
4.459802686e-141
3.31428694e-157
3.376053078e-126
1.532633072e-126
7.795003492e-146
4.34472028e-94
7.525805694e-113
5.788525424e-82
1.254591871e-102
5.205158456e-74
5.385855972e-75
1.662261778e-57
0
3.027110292e-50
1.661206488e-69
4.137766701e-07
0.004753794827
0.04994177666
3.997959942e-166
2.012983379e-166
1.634077184e-166
1.604255228e-166
1.613826546e-166
1.896466932e-166
2.377252361e-166
3.181829142e-166
4.531580756e-166
6.828107184e-166
1.082238463e-165
1.782882801e-165
2.646542019e-166
3.868773845e-159
7.851733633e-160
2.078535778e-160
3.159947635e-159
3.126806005e-156
4.574708956e-153
8.734739565e-150
5.254754195e-147
3.575385768e-147
2.846215869e-141
4.048686995e-148
2.167220099e-126
9.233193724e-127
1.248152013e-145
1.886677529e-93
0
2.1453109e-82
2.899525795e-101
1.911505744e-76
8.652891554e-65
1.070567968e-72
2.791266371e-54
2.672841041e-53
0
1.771180602e-06
0.005228770468
0.05135088199
2.707192523e-164
1.354255066e-164
1.091266072e-164
1.060453332e-164
1.057352072e-164
1.226410336e-164
1.514866245e-164
1.994051697e-164
2.787069451e-164
4.114776105e-164
6.379000179e-164
1.02705654e-163
1.221369893e-164
2.191477201e-157
4.331605001e-158
1.068838058e-158
4.57165568e-158
2.226964436e-155
5.771426687e-153
1.598355573e-150
2.91107409e-147
5.873829319e-144
6.533142969e-156
1.47928686e-129
6.085885236e-127
2.541715221e-127
2.801583513e-148
2.33999156e-93
7.626802493e-114
7.557598183e-83
2.940742696e-83
8.488977227e-103
6.812349049e-65
2.793701875e-86
2.418016271e-54
6.89854166e-55
1.727005239e-74
4.037058492e-06
0.005717401814
0.05280821888
1.661828709e-162
8.253665417e-163
6.599760203e-163
6.346681278e-163
6.272600219e-163
7.17992117e-163
8.738536475e-163
1.131205635e-162
1.551492858e-162
2.243984759e-162
3.401413079e-162
5.349934515e-162
5.356248136e-163
1.091987973e-155
2.103277378e-156
4.953750343e-157
8.135708844e-157
2.873769638e-154
6.055718977e-152
2.360102014e-150
1.516615768e-147
5.920948511e-144
3.852602756e-163
1.001171451e-125
3.661731608e-126
2.283680196e-127
3.580011236e-146
2.339913055e-93
7.789061823e-113
5.675456523e-83
2.701779524e-83
0
1.770194608e-65
4.383583313e-88
6.811500434e-55
1.012872719e-55
0
7.154648556e-06
0.00621904719
0.05433354213
9.261233926e-161
4.564303155e-161
3.62108874e-161
3.445770297e-161
3.376391683e-161
3.813851657e-161
4.573726535e-161
5.822308565e-161
7.834652993e-161
1.10967122e-160
1.643570101e-160
2.523332072e-160
2.280985662e-161
4.758157663e-154
8.967250299e-155
2.055527766e-155
1.641033524e-155
3.235418125e-153
5.847171865e-151
1.368239686e-149
5.680034634e-148
5.915658472e-144
5.350859259e-164
3.222881843e-123
1.060394104e-123
4.111023506e-125
3.766474189e-145
2.051011593e-93
3.836533511e-115
4.541230117e-83
1.540668125e-83
1.81287662e-104
9.152659878e-67
0
3.600378672e-56
5.229285869e-57
2.94185935e-76
1.12893643e-05
0.006732634988
0.05593545933
4.68878351e-159
2.292803501e-159
1.805008878e-159
1.699871045e-159
1.651963325e-159
1.84144971e-159
2.175910656e-159
2.723283811e-159
3.593545121e-159
4.98025088e-159
7.19989462e-159
1.077662122e-158
9.653350342e-160
1.798260408e-152
3.357248615e-153
7.602790482e-154
3.826200751e-154
3.155108847e-152
4.755369401e-150
5.966474494e-149
2.331244924e-147
5.909212071e-144
0
1.188279266e-121
3.957728352e-122
1.479593736e-123
4.967078213e-144
1.054798771e-93
3.259668385e-113
2.653753846e-83
2.847401602e-84
2.953956356e-102
6.110364752e-69
1.280614958e-90
2.228906602e-58
4.071895196e-59
5.351174148e-84
1.661562595e-05
0.007259108211
0.05761320392
2.157144708e-157
1.047258665e-157
8.185056645e-158
7.630606638e-158
7.357198219e-158
8.092106288e-158
9.41820829e-158
1.158098995e-157
1.497001047e-157
2.027156935e-157
2.856038157e-157
4.161658384e-157
4.138044831e-158
5.85953008e-151
1.110391822e-151
2.496829023e-152
9.341813787e-153
2.680874139e-151
3.196361538e-149
1.699076944e-148
1.600721523e-146
5.251534902e-144
1.163009178e-164
9.020915047e-121
3.082464975e-121
1.147621449e-122
5.848730101e-143
2.19637825e-94
0
8.126987858e-84
0
2.146353603e-73
3.685157391e-72
9.907419163e-87
1.085401788e-61
2.814549998e-62
5.237739888e-91
2.296251574e-05
0.007799140315
0.05935909971
9.022165194e-156
4.354482366e-156
3.380669344e-156
3.120001934e-156
2.984537577e-156
3.23675886e-156
3.706675629e-156
4.471315131e-156
5.651523479e-156
7.462802616e-156
1.022916421e-155
1.449549488e-155
1.804525076e-156
1.667342765e-149
3.279927353e-150
7.313843963e-151
2.154147689e-151
2.042014499e-150
1.727082495e-148
2.237525964e-148
2.780724372e-144
4.367449327e-143
0
2.403001725e-120
8.076633692e-121
2.703440861e-122
2.875478045e-127
1.256896812e-95
5.067290185e-113
9.188784892e-85
0
1.376200277e-73
0
2.842250833e-68
4.06351766e-66
1.329121008e-66
5.340899925e-91
3.001369454e-05
0.008351791348
0.06116079272
3.434229921e-154
1.650009201e-154
1.272372409e-154
1.161474339e-154
1.101315761e-154
1.175585237e-154
1.321839011e-154
1.560442443e-154
1.923954794e-154
2.472628872e-154
3.294601586e-154
4.542723935e-154
7.861270879e-155
4.427796414e-148
8.597472545e-149
2.003557641e-149
4.490245554e-150
1.514498458e-149
7.210931723e-148
1.310184186e-151
5.285143378e-141
1.076314872e-140
0
3.861155419e-120
1.10250369e-120
4.233289648e-122
5.795306217e-109
1.312118139e-97
3.295249358e-121
2.588819487e-86
1.470319261e-105
2.082238496e-74
1.00587546e-98
1.920131764e-68
4.352102439e-69
3.764029192e-70
4.913850183e-101
3.765966907e-05
0.008913690797
0.06300324616
1.191460385e-152
5.694647802e-153
4.353127066e-153
3.920308602e-153
3.676191952e-153
3.850212785e-153
4.237791082e-153
4.882401207e-153
5.861794088e-153
7.331178686e-153
9.515200474e-153
1.281075128e-152
3.300937229e-153
1.209550304e-146
1.842271225e-147
5.906047917e-148
8.620367266e-149
1.279434067e-148
2.215235462e-147
1.353042965e-153
1.515200162e-138
5.330752759e-139
0
1.315024418e-119
2.043422607e-120
1.280927096e-121
5.614142051e-102
1.340624296e-110
1.713142852e-93
1.214657966e-88
7.223754811e-108
4.20434894e-76
4.21243595e-101
2.9743997e-69
2.596756815e-70
7.990441698e-72
8.286789941e-99
4.592841992e-05
0.009479799737
0.06487014298
3.764642144e-151
1.779398493e-151
1.341558464e-151
1.186325323e-151
1.096147243e-151
1.122104973e-151
1.205916185e-151
1.354899105e-151
1.587244659e-151
1.941856181e-151
2.472645405e-151
3.269441772e-151
1.281726306e-151
5.312512555e-145
2.705402382e-146
2.005914056e-146
1.562648534e-147
1.41527165e-147
4.831173044e-147
4.170046509e-157
1.111219773e-134
3.062028497e-136
2.535670321e-156
2.948093009e-119
4.437202884e-120
1.729500002e-138
3.762676553e-102
4.151551026e-110
4.179202518e-92
5.051135338e-90
0
7.179542044e-79
2.131868996e-103
5.86677374e-71
4.721242436e-72
1.122910155e-73
8.41325953e-97
5.492728365e-05
0.01005150806
0.0667449411
1.072657365e-149
4.946113884e-150
3.648374725e-150
3.149744649e-150
2.858340957e-150
2.855707509e-150
3.004191645e-150
3.315738732e-150
3.836425627e-150
4.654183204e-150
5.86709491e-150
7.61217678e-150
4.407949034e-150
1.143997878e-143
5.048867181e-142
4.284032439e-144
2.198382638e-146
1.933779589e-146
1.085362381e-146
1.119142755e-161
9.142445058e-130
1.932893866e-131
1.668233069e-150
2.952378482e-119
1.895281903e-119
1.114940844e-135
6.59405143e-103
1.916048563e-104
0
3.930020757e-85
1.588742083e-83
7.40930089e-83
3.523035529e-102
3.136422214e-72
1.098045191e-73
5.188824936e-76
2.069055078e-95
6.474800236e-05
0.01063083422
0.06861183841
2.674147774e-148
1.17993863e-148
8.453033468e-149
7.112540515e-149
6.36166142e-149
6.269498491e-149
6.585772386e-149
7.33448976e-149
8.593699888e-149
1.043710222e-148
1.287506668e-148
1.593685352e-148
1.319749534e-148
3.031792579e-150
6.46751355e-137
3.85424083e-139
6.655084268e-143
2.438523871e-144
2.481820783e-145
0
6.988851474e-125
9.912275547e-127
1.166094377e-145
2.636200002e-119
1.58299525e-117
1.561980334e-117
1.689282821e-104
3.175350822e-104
0
1.150372928e-80
2.193297165e-82
1.62494293e-83
8.651769602e-82
5.436876779e-71
3.567972682e-71
2.866421101e-72
0
7.538725484e-05
0.01121660341
0.07045612518
5.475364234e-147
2.284663413e-147
1.6032095e-147
1.34307099e-147
1.222826716e-147
1.249342783e-147
1.384963923e-147
1.616351862e-147
1.904807908e-147
2.198741118e-147
2.476514655e-147
2.738986494e-147
2.634960891e-147
3.467287119e-160
7.73337895e-132
2.449211619e-134
6.593299113e-138
1.627060635e-139
1.368767868e-140
0
4.151153587e-120
3.343448377e-122
1.684463697e-140
4.925552054e-120
1.61312846e-116
8.322536009e-110
4.225971334e-113
2.92246401e-101
0
9.196047923e-78
2.166930227e-79
2.194116522e-82
2.814415939e-79
0
1.751191743e-66
1.449802011e-67
2.603095777e-86
8.681505779e-05
0.01180426784
0.07226342739
8.334482884e-146
3.492821619e-146
2.630487351e-146
2.441771388e-146
2.504784786e-146
2.90290326e-146
3.476991122e-146
3.953786446e-146
3.99973571e-146
3.733355274e-146
3.449502209e-146
3.205177276e-146
2.714392707e-146
4.601805629e-161
6.698395275e-128
3.796331261e-130
7.263819764e-133
1.002575999e-134
7.24750475e-136
0
6.562235156e-117
7.737856666e-119
4.161848457e-122
1.779506514e-136
6.158445629e-115
4.383605852e-110
2.198266702e-113
1.284975645e-99
2.425527067e-118
2.26186561e-76
1.124731305e-76
2.117655239e-82
6.427180373e-74
1.698227693e-92
1.031923665e-61
6.407460871e-63
0
9.89912606e-05
0.01239282324
0.07402024371
1.053160632e-144
6.931623677e-145
7.43148348e-145
9.179266871e-145
1.192925233e-144
1.78739568e-144
2.905042711e-144
5.106554451e-144
9.713272878e-144
1.99795264e-143
4.440648232e-143
1.06460277e-142
2.752191951e-142
2.655129785e-161
9.36551554e-126
1.276106321e-125
8.518626141e-128
5.696336621e-130
3.547505798e-131
0
3.369799373e-115
1.785647247e-115
2.023267258e-117
0
4.409929851e-110
2.333312587e-127
2.124395976e-103
4.248085994e-99
1.034333763e-101
2.056199528e-76
4.980416271e-72
1.788853065e-73
2.867511583e-70
2.633737214e-89
5.254707957e-57
1.899290644e-58
4.373842466e-79
0.0001119440927
0.01298251303
0.07571531794
5.504031381e-140
5.898434632e-140
7.269148834e-140
9.500966912e-140
1.267158522e-139
1.912032797e-139
3.091971093e-139
5.366919159e-139
1.0032735e-138
2.023083546e-138
4.401109605e-138
1.031286959e-137
2.59996742e-137
1.867594127e-150
3.280525944e-125
1.161717407e-120
5.982256529e-123
2.960304572e-125
1.605229474e-126
8.885083236e-140
8.783024805e-115
1.120875196e-110
1.127744004e-112
6.289316657e-132
9.005278618e-108
3.459612256e-127
5.707933313e-99
7.001152294e-115
3.254874977e-83
1.146602555e-93
2.695761107e-68
6.12139034e-70
3.98240936e-68
7.884118296e-87
8.331002087e-54
2.515823862e-55
2.173526527e-74
0.0001256334773
0.01357636806
0.07734344723
5.948029919e-135
6.34685851e-135
7.77324655e-135
1.006747553e-134
1.333933586e-134
1.987266236e-134
3.16816197e-134
5.411065665e-134
9.93320509e-134
1.963174629e-133
4.178671669e-133
9.565920533e-133
2.350796796e-132
6.067022118e-132
0
9.254382662e-116
2.566343704e-118
1.398850676e-120
6.693469581e-122
2.602042659e-121
0
3.033005991e-107
2.666483482e-109
2.140089831e-125
1.537219318e-106
0
2.119875179e-95
0
9.91098269e-79
2.57385757e-94
5.600765204e-66
1.655459561e-67
2.840073589e-67
1.089332257e-74
5.36503555e-52
2.893757601e-53
1.423370256e-72
0.0001399511306
0.01417494875
0.07890903411
6.183853077e-130
6.569760422e-130
7.995537378e-130
1.026044283e-129
1.350268557e-129
1.985653793e-129
3.119953437e-129
5.241666055e-129
9.445546956e-129
1.828884915e-128
3.807038243e-128
8.509729618e-128
2.039163379e-127
5.247780528e-127
0
3.748779229e-112
1.466267823e-114
5.981880319e-116
2.558487262e-117
1.013492769e-116
0
2.86271832e-105
4.891445107e-107
9.280593518e-107
3.954049334e-106
0
5.903088765e-93
0
1.534251446e-75
1.184380526e-77
5.62352101e-65
3.652322346e-65
4.329432462e-67
9.955367375e-57
2.63299922e-51
7.327494271e-51
4.97815133e-70
0.0001548216978
0.01478174629
0.08042928627
6.19517122e-125
6.552749724e-125
7.923808102e-125
1.00744367e-124
1.316436424e-124
1.910508059e-124
2.957789569e-124
4.886429153e-124
8.640433006e-124
1.63830158e-123
3.333493541e-123
7.271567748e-123
1.698090365e-122
4.251553158e-122
0
4.516463152e-110
6.573487891e-111
2.297501043e-111
8.853523574e-113
3.38495575e-112
1.48683255e-126
1.760744779e-104
1.615059171e-103
3.102400069e-102
3.960911594e-106
7.852710003e-94
1.954622373e-91
5.119981351e-111
1.678562611e-73
9.708847538e-76
0
1.471877731e-60
3.634037952e-71
7.132010955e-52
2.710584685e-52
2.369949562e-46
0
0.0001700552209
0.01539629797
0.08193391758
5.990565689e-120
6.308018137e-120
7.578322156e-120
9.545493773e-120
1.238173676e-119
1.772968309e-119
2.703789878e-119
4.39092039e-119
7.615831657e-119
1.413446486e-118
2.809743197e-118
5.977864718e-118
1.359581451e-117
3.309774058e-117
1.283003909e-130
3.073557498e-109
2.418229859e-106
7.742880968e-107
2.643364379e-108
1.012062372e-107
5.492164839e-108
1.81103082e-109
3.775702586e-99
9.712419107e-98
3.966216575e-106
1.857475603e-91
1.301185426e-90
0
2.08525201e-72
1.472717239e-73
0
7.752946888e-57
2.898265393e-67
5.080609464e-50
2.828065226e-52
1.647608722e-42
0
0.0001863476139
0.01602211575
0.08346385854
5.600436731e-115
5.870471233e-115
7.006149472e-115
8.742099941e-115
1.125319252e-114
1.589541539e-114
2.38713537e-114
3.809532632e-114
6.478590141e-114
1.176377725e-113
2.283420098e-113
4.735423491e-113
1.048246675e-112
2.479897171e-112
6.190397134e-112
5.541904754e-116
5.451659761e-103
2.195989946e-102
6.928398879e-104
2.664085077e-103
1.764168427e-103
1.968651919e-109
5.187452915e-96
8.226560618e-94
3.961117974e-106
4.898316054e-90
2.890228373e-90
1.404916335e-109
4.717711523e-72
4.764793165e-73
1.254931425e-92
1.85111874e-54
0
3.760691039e-49
2.710584685e-52
7.420156277e-40
1.178090703e-59
0.0002041097368
0.01665792253
0.08506760329
5.070408677e-110
5.290431755e-110
6.271588079e-110
7.751734548e-110
9.899210768e-110
1.379055822e-109
2.038919586e-109
3.196387678e-109
5.327729191e-109
9.460396632e-109
1.792107925e-108
3.620466722e-108
7.795119875e-108
1.791589887e-107
4.409785703e-107
2.086139582e-120
8.235165503e-101
7.764342889e-99
1.401371094e-99
6.014180531e-99
3.907734061e-99
1.81103082e-109
5.954593884e-94
4.865532408e-91
3.856665462e-91
2.874369571e-89
3.351833997e-90
0
4.723645374e-72
5.634523951e-73
0
2.983236961e-53
5.579494977e-52
5.347686012e-49
2.828065226e-52
3.300034664e-38
2.237709743e-58
0.0002225763766
0.017303571
0.08679222557
4.452668844e-105
4.624481479e-105
5.444986032e-105
6.666302123e-105
8.442767928e-105
1.159749188e-104
1.687625618e-104
2.598078829e-104
4.242620898e-104
7.363696323e-104
1.360581793e-103
2.675946943e-103
5.599962833e-103
1.249442053e-102
2.981473881e-102
7.558242627e-102
2.273347911e-99
2.399370998e-96
2.391734633e-95
1.122503535e-94
7.407771021e-95
2.73271214e-99
1.125484885e-92
3.2619594e-89
1.306410806e-88
7.464703011e-89
5.672861155e-91
7.193707163e-94
4.223855814e-72
4.595990038e-73
0
5.636435124e-53
1.622655324e-49
5.379158044e-49
2.710584686e-52
2.385906374e-37
8.266761042e-60
0.0002418516667
0.01795457143
0.08867237525
3.799299149e-100
3.92762941e-100
4.592802357e-100
5.569560998e-100
6.993100849e-100
9.470310926e-100
1.355978955e-99
2.049266679e-99
3.277208122e-99
5.557139118e-99
1.00093848e-98
1.915272029e-98
3.892903647e-98
8.42495207e-98
1.947700525e-97
4.798026719e-97
1.254597758e-96
1.757820401e-94
6.879370332e-92
1.510839999e-90
1.13770313e-90
7.085161943e-93
1.1142161e-91
4.813898241e-88
7.193854613e-87
2.427218157e-88
1.192443736e-105
1.590165953e-75
1.863243825e-72
9.062794064e-73
4.680377947e-75
6.431777799e-72
2.615218126e-48
6.040764143e-49
2.828064041e-52
4.309528502e-37
5.518090721e-58
0.0002619530326
0.01860640283
0.09072079733
3.155377602e-95
3.246818467e-95
3.770354739e-95
4.528677682e-95
5.635232817e-95
7.52217448e-95
1.059483566e-94
1.571310687e-94
2.459885564e-94
4.073206844e-94
7.147726569e-94
1.329751424e-93
2.623148977e-93
5.501860362e-93
1.230925271e-92
2.931320538e-92
7.390807264e-92
2.061151235e-91
3.639454445e-89
2.711524535e-87
7.255566828e-87
8.050574362e-89
1.126749704e-88
4.438618562e-87
1.661278905e-85
2.655827872e-86
0
3.112131874e-75
3.708556943e-73
2.774091459e-70
2.251973751e-72
3.644967742e-63
5.109642668e-48
7.524098867e-45
1.185783678e-39
4.309884511e-37
8.646636849e-62
0.0002829776582
0.01925218346
0.09291992661
2.555253179e-90
2.617141238e-90
3.01779858e-90
3.590200465e-90
4.425716474e-90
5.822082224e-90
8.064530117e-90
1.173337164e-89
1.797405397e-89
2.904881914e-89
4.963388299e-89
8.971414526e-89
1.716262067e-88
3.485551015e-88
7.5391332e-88
1.733126354e-87
4.219487113e-87
1.110812517e-86
3.697707221e-86
1.283270764e-84
8.920339627e-84
1.547391402e-84
4.855848018e-84
2.212754495e-83
1.164177414e-82
7.361850337e-82
0
2.207529228e-75
9.320388816e-73
1.321699867e-68
5.958945467e-71
8.452960395e-55
1.876567693e-60
3.350365492e-41
5.747781553e-39
4.310818914e-37
7.997924441e-60
0.0003052409217
0.01988731283
0.09521856973
2.021301474e-85
2.060787077e-85
2.359367953e-85
2.780088436e-85
3.393675264e-85
4.39904455e-85
5.990993884e-85
8.54816157e-85
1.280822436e-84
2.019374976e-84
3.357556834e-84
5.892215519e-84
1.09224314e-83
2.145833626e-83
4.482404187e-83
9.935001696e-83
2.331568033e-82
5.911608068e-82
1.616744449e-81
4.969662175e-81
1.834273381e-80
5.486422877e-80
2.094099123e-79
9.205186097e-79
4.620356921e-78
2.714066581e-77
1.940401447e-76
1.798548906e-76
4.881195152e-71
1.355461575e-67
5.09680656e-71
2.640431638e-56
9.876694572e-62
3.462753988e-40
1.620798138e-38
3.175628516e-37
4.765223284e-58
0.0003288283
0.02051020433
0.09753752084
1.564683763e-80
1.588101726e-80
1.805089926e-80
2.106650952e-80
2.545441916e-80
3.250712524e-80
4.351616176e-80
6.087084647e-80
8.917455754e-80
1.37087557e-79
2.216642352e-79
3.774057253e-79
6.773332682e-79
1.285981969e-78
2.591345363e-78
5.530791689e-78
1.248970131e-77
3.043539592e-77
7.990473654e-77
2.263978253e-76
6.949814233e-76
2.333069164e-75
8.749519477e-75
3.700881734e-74
1.796998449e-73
1.025829588e-72
7.164706731e-72
6.460453301e-71
1.71922113e-69
7.354670234e-67
1.700676072e-65
0
1.141732038e-43
1.048693984e-39
2.586684379e-38
1.217291703e-37
3.330831087e-63
0.0003537234998
0.02112324102
0.09978501559
1.187402605e-75
1.199946388e-75
1.353928339e-75
1.56500622e-75
1.870893025e-75
2.353581591e-75
3.096181067e-75
4.244494736e-75
6.077095248e-75
9.104695339e-75
1.430825307e-74
2.361763795e-74
4.100224372e-74
7.515246095e-74
1.459128146e-73
2.994910775e-73
6.497616346e-73
1.518871933e-72
3.820956371e-72
1.036190238e-71
3.041715107e-71
9.774649677e-71
3.51440545e-70
1.427359198e-69
6.679763107e-69
3.694799589e-68
2.516921454e-67
2.238636529e-66
2.862536641e-65
6.100550038e-64
2.326977173e-62
4.029415028e-82
5.32235297e-43
1.463905166e-39
2.575429762e-38
1.980972515e-38
1.791754747e-61
0.0003793423569
0.02172794211
0.1018783383
8.849171581e-71
8.905621604e-71
9.973840909e-71
1.141833532e-70
1.349880793e-70
1.672560763e-70
2.161722543e-70
2.903346232e-70
4.060995247e-70
5.926515241e-70
9.046432836e-70
1.446575645e-69
2.427199247e-69
4.290175545e-69
8.015793371e-69
1.580000501e-68
3.287849171e-68
7.358826472e-68
1.770094727e-67
4.58432595e-67
1.284482371e-66
3.942278752e-66
1.354904276e-65
5.270829292e-65
2.370718834e-64
1.267369554e-63
8.402658221e-63
7.373530914e-62
9.590154239e-61
2.135023394e-59
8.872628784e-58
0
7.69552322e-43
1.005079012e-39
1.835545699e-38
2.459421188e-39
5.992663273e-60
0.0004040583752
0.02232432112
0.1037641772
6.487235614e-66
6.503213755e-66
7.228305445e-66
8.195687073e-66
9.577105212e-66
1.168616908e-65
1.483578786e-65
1.951514261e-65
2.665626168e-65
3.787516594e-65
5.612130472e-65
8.687306918e-65
1.407523051e-64
2.396509985e-64
4.303442365e-64
8.134162641e-64
1.620666293e-63
3.466238705e-63
7.954319718e-63
1.962677224e-62
5.235609942e-62
1.53046011e-61
5.013906534e-61
1.862946338e-60
8.030434296e-60
4.137836968e-59
2.665929e-58
2.316518702e-57
3.09514811e-56
7.204033975e-55
3.246709759e-53
0
5.044937948e-43
3.279400582e-40
6.481476037e-39
7.038875962e-40
4.584076749e-59
0.0004237288721
0.02290559808
0.1054255046
4.685225803e-61
4.679885939e-61
5.161720422e-61
5.79606953e-61
6.691781153e-61
8.040470162e-61
1.002410924e-60
1.291042792e-60
1.721479886e-60
2.38038706e-60
3.421894962e-60
5.123984082e-60
8.009440232e-60
1.312192727e-59
2.261701328e-59
4.093238338e-59
7.794477207e-59
1.589703912e-58
3.472022291e-58
8.141071368e-58
2.061925525e-57
5.723500723e-57
1.781824593e-56
6.303361059e-56
2.595885451e-55
1.285369848e-54
8.040547059e-54
6.961622956e-53
9.618324849e-52
2.336591381e-50
1.142612913e-48
8.607072105e-47
2.378242111e-43
8.088183658e-41
4.559284248e-39
1.28034724e-37
0
0.000434638051
0.02344518709
0.1068767769
3.338100335e-56