/*--------------------------------*- C++ -*----------------------------------*\
| =========                 |                                                 |
| \\      /  F ield         | OpenFOAM: The Open Source CFD Toolbox           |
|  \\    /   O peration     | Version:  v1912                                 |
|   \\  /    A nd           | Website:  www.openfoam.com                      |
|    \\/     M anipulation  |                                                 |
\*---------------------------------------------------------------------------*/
FoamFile
{
    version     2.0;
    format      ascii;
    class       volScalarField;
    location    "0.4";
    object      iDmdt.gasAndLiquid;
}
// * * * * * * * * * * * * * * * * * * * * * * * * * * * * * * * * * * * * * //

dimensions      [1 -3 -1 0 0 0 0];


internalField   nonuniform List<scalar> 
4800
(
4.090448649e-198
2.216017176e-198
1.956946401e-198
2.167657826e-198
2.463168625e-198
3.394460778e-198
5.12897027e-198
8.514443759e-198
1.547622448e-197
3.058092742e-197
1.054903842e-195
8.179397476e-192
6.074000228e-188
4.084866828e-184
2.503482288e-180
1.404123891e-176
7.223885988e-173
3.406246806e-169
1.468138555e-165
5.768194015e-162
2.039193268e-158
6.45317455e-155
1.615366866e-151
8.204806985e-149
7.792704758e-153
3.134376091e-140
1.67671904e-141
0
2.768239225e-105
1.031877702e-104
1.811102695e-118
1.345760684e-77
1.27565928e-76
1.286160915e-76
1.233883505e-61
2.014271535e-77
6.305688257e-50
5.320168158e-64
-0.0004994968676
0.1106322782
6.989100952e-195
3.754729893e-195
3.29636387e-195
3.622419145e-195
4.079946505e-195
5.563087641e-195
8.299723858e-195
1.357673385e-194
2.427008449e-194
4.693197589e-194
1.761561694e-193
6.505011104e-190
4.819174432e-186
3.226862118e-182
1.96257635e-178
1.087626028e-174
5.494264174e-171
2.524715564e-167
1.049345327e-163
3.911498266e-160
1.276983005e-156
3.557680253e-153
5.899410032e-150
2.88614384e-147
5.696151346e-154
2.46255838e-134
7.847139585e-136
0
1.565940168e-123
6.855146802e-100
4.956956267e-118
4.812671962e-75
1.199445021e-93
1.165422747e-60
5.819329544e-59
4.966880824e-78
1.612095132e-46
4.270852092e-64
-0.001125074829
0.2068131389
4.954661638e-192
2.646252314e-192
2.309715638e-192
2.517913696e-192
2.810948303e-192
3.791937513e-192
5.585513163e-192
9.00258109e-192
1.58260334e-191
3.004030611e-191
6.450441285e-191
2.724263953e-188
1.944777299e-184
1.258498213e-180
7.378185091e-177
3.930006088e-173
1.9012888e-169
8.326071314e-166
3.273252593e-162
1.139916946e-158
3.385353356e-155
8.059819604e-152
5.1182704e-149
4.310782108e-146
5.071418332e-154
1.341112684e-130
8.363409144e-132
5.032921663e-134
0
2.396603638e-95
1.042803041e-114
1.500230912e-73
9.081163395e-94
4.994836343e-57
2.029107637e-56
8.156728891e-75
2.529639587e-44
6.069513605e-64
-0.002093409574
0.2885742612
2.296688581e-189
1.220406238e-189
1.059074843e-189
1.145241298e-189
1.26730008e-189
1.691237429e-189
2.459453176e-189
3.90567484e-189
6.751625078e-189
1.258107487e-188
2.520161355e-188
8.815727158e-187
5.589963253e-183
3.39944262e-179
1.861944066e-175
9.257912473e-172
4.17225939e-168
1.699291686e-164
6.205622997e-161
2.003366701e-157
5.46101593e-154
1.154104198e-150
1.467853493e-151
5.851773747e-142
5.695618348e-154
5.152363646e-129
1.009867299e-127
8.4261861e-129
0
3.055934304e-92
1.128808078e-111
7.036335955e-73
3.604777172e-94
9.793398772e-55
1.05562953e-54
0
4.920570131e-43
5.803147747e-64
-0.003077577693
0.3516222193
7.780361877e-187
4.114423738e-187
3.550045274e-187
3.807685661e-187
4.176695011e-187
5.513737173e-187
7.915740014e-187
1.238467459e-186
2.105142945e-186
3.850752735e-186
7.531360384e-186
3.868874295e-185
1.434821695e-181
8.106409943e-178
3.905661895e-174
1.727284733e-170
6.846904362e-167
2.430574159e-163
7.710056666e-160
2.175863624e-156
5.26005523e-153
1.023826264e-149
1.389343973e-151
8.443119574e-139
5.873864793e-140
0
1.704662995e-122
1.050607498e-123
0
4.966763447e-90
2.903868286e-109
1.154123282e-72
1.553734645e-92
2.042129798e-53
1.057146002e-53
5.593512981e-72
1.192113398e-42
2.540320742e-69
-0.003829414381
0.3940710165
2.057090438e-184
1.082726775e-184
9.288468771e-185
9.880882899e-185
1.074429996e-184
1.402974087e-184
1.988308735e-184
3.064717295e-184
5.122044999e-184
9.196603974e-184
1.762244941e-183
4.194913968e-183
3.744451599e-180
2.380907623e-176
8.51455918e-173
3.338551456e-169
1.13614304e-165
3.309812387e-162
8.109766584e-159
1.645824353e-155
2.625906418e-152
3.772988877e-149
1.376110732e-151
4.118815049e-137
6.905526431e-138
3.155111622e-159
2.350832733e-118
1.35907877e-119
0
1.743745977e-87
2.010229581e-107
1.21730846e-72
0
1.084584943e-52
1.315791679e-53
0
1.211457539e-42
8.822767087e-67
-0.005107402151
0.4209846255
4.421948657e-182
2.316613958e-182
1.975931739e-182
2.084557628e-182
2.247137485e-182
2.902188602e-182
4.059948294e-182
6.164685645e-182
1.012932958e-181
1.785000404e-181
3.351775333e-181
6.761874199e-181
9.007544341e-179
1.401860416e-174
1.859377173e-171
6.889740381e-168
2.183634773e-164
5.771949724e-161
1.218279323e-157
1.889984413e-154
1.429323426e-151
5.288178414e-150
1.372564541e-151
1.827333398e-136
2.398468376e-135
2.992754312e-155
5.614975829e-116
5.739754754e-117
9.56281904e-136
9.610834161e-85
0
1.331255897e-72
0
1.176384406e-52
0
1.332248873e-45
1.215524824e-42
1.056608618e-64
-0.005770676728
0.4378046604
7.947515044e-180
4.144296022e-180
3.514403697e-180
3.676604989e-180
3.929324098e-180
5.018771927e-180
6.929730046e-180
1.036452925e-179
1.674106264e-179
2.895031179e-179
5.326354209e-179
1.029377984e-178
1.737642668e-177
1.70197865e-172
3.212121535e-170
1.154437749e-166
3.553213792e-163
9.133997275e-160
1.882709566e-156
2.878427129e-153
2.03845123e-150
4.053459018e-151
4.293900654e-146
9.513096299e-149
2.720524688e-131
0
5.31050116e-115
3.855415292e-114
1.643924009e-133
5.821915426e-83
0
3.698714301e-72
5.080633083e-93
1.165925973e-52
1.468310257e-71
4.355026795e-45
1.211039363e-42
1.256362258e-63
-0.006682718633
0.4474390504
1.218724097e-177
6.325626338e-178
5.333013085e-178
5.53195602e-178
5.861688274e-178
7.403445057e-178
1.00885174e-177
1.486098634e-177
2.359255143e-177
4.002960296e-177
7.214561043e-177
1.360339859e-176
3.206918817e-176
2.327060549e-170
3.990173554e-169
1.377361631e-165
4.130980577e-162
1.03849619e-158
2.109994524e-155
3.229824714e-152
2.1385094e-149
1.670161682e-150
1.695439606e-143
9.301970601e-157
1.453975991e-128
3.407586638e-129
0
1.921804227e-109
0
6.758011414e-82
4.604322977e-103
8.18695394e-72
1.784607274e-90
1.15557515e-52
1.890905154e-79
5.522772305e-45
8.875619933e-43
6.623497058e-64
-0.007481936257
0.4532906745
1.619084137e-175
8.364502877e-176
7.010600453e-176
7.20973799e-176
7.574380296e-176
9.458487863e-176
1.2718154e-175
1.844837868e-175
2.878006084e-175
4.790085247e-175
8.455143122e-175
1.558875967e-174
1.129268633e-174
2.842519828e-168
3.971929131e-168
1.129648221e-164
3.324401531e-161
8.261379211e-158
1.682189799e-154
2.639946279e-151
1.5976502e-148
2.130420531e-150
8.376099515e-142
9.388774927e-157
6.983691616e-127
2.058709491e-127
4.269538433e-148
8.181477e-105
6.508946221e-124
2.392594267e-81
9.937157953e-103
8.148199657e-72
4.130042428e-93
9.946749476e-53
8.665196981e-77
4.672058708e-45
3.280821828e-43
1.002213102e-66
-0.008481074006
0.4565107636
1.885688058e-173
9.696053815e-174
8.078284769e-174
8.235189462e-174
8.577959851e-174
1.058848232e-173
1.404624906e-173
2.005937181e-173
3.074350501e-173
5.018207566e-173
8.672932191e-173
1.563711622e-172
7.160535608e-173
3.025135152e-166
8.659410386e-167
5.983391112e-164
1.756387893e-160
4.419865735e-157
9.318552019e-154
1.557425328e-150
8.269043601e-148
2.424111636e-150
7.059504936e-141
9.148436641e-157
5.670142325e-126
1.644190903e-126
1.194071673e-146
2.673743699e-100
3.59383536e-119
2.551802531e-81
5.405113834e-103
8.0836138e-72
1.737125062e-95
5.051085889e-53
2.501788354e-74
2.068259998e-45
4.304167904e-44
1.404256743e-62
-0.009673131573
0.4586264167
1.943468403e-171
9.945209413e-172
8.235442794e-172
8.320367202e-172
8.592520901e-172
1.048176551e-171
1.371457335e-171
1.927775292e-171
2.901888845e-171
4.644244932e-171
7.857130894e-171
1.385195835e-170
4.666964177e-171
2.815593254e-164
6.261903069e-165
1.893916952e-163
5.735397165e-160
1.542591722e-156
3.564215463e-153
6.632969837e-150
2.951735141e-147
3.034565398e-150
1.263955413e-140
9.245029886e-157
9.618503831e-126
3.861982607e-126
1.271819646e-145
4.725888952e-97
1.818643297e-116
2.529775774e-81
0
6.592686851e-72
0
1.060430927e-53
7.340342391e-74
3.232658909e-46
1.407909741e-45
0
-0.01089382299
0.4604011615
1.785847779e-169
9.092978534e-170
7.482319197e-170
7.48995605e-170
7.668235829e-170
9.241481444e-170
1.192323636e-169
1.649197957e-169
2.437644287e-169
3.824246174e-169
6.331808123e-169
1.091416668e-168
2.755692063e-169
2.302925306e-162
4.931784008e-163
5.272602529e-163
1.264407648e-159
3.831235566e-156
9.957647616e-153
2.043052073e-149
8.258647636e-147
4.784538351e-150
1.255157575e-140
9.029903801e-157
9.547679734e-126
4.666748518e-126
2.830505335e-145
6.387051257e-95
5.632455414e-118
2.402797157e-81
3.026806266e-104
2.556516365e-72
5.11689322e-91
6.269292613e-55
3.37300394e-75
1.276331644e-47
7.596059426e-66
0
-0.01211295372
0.4622974641
1.471851782e-167
7.45425298e-168
6.09345019e-168
6.041672813e-168
6.131574929e-168
7.298030594e-168
9.282048107e-168
1.263048571e-167
1.832683108e-167
2.817879252e-167
4.565126295e-167
7.693012875e-167
1.473783345e-167
1.660695436e-160
3.460390282e-161
1.091599487e-161
3.030315743e-159
8.155804504e-156
2.017167644e-152
4.036543718e-149
1.583746085e-146
1.172490439e-149
1.228010043e-140
9.124875948e-157
9.293798785e-126
4.218573232e-126
2.145275243e-145
1.195537875e-93
2.070543682e-112
1.592296031e-81
3.450458826e-102
1.43126635e-73
1.480626972e-74
4.568874476e-57
0
8.437743178e-50
3.875250081e-69
2.192261527e-06
-0.01332653252
0.4646318634
1.093117648e-165
5.503854616e-166
4.467819301e-166
4.386224154e-166
4.412315687e-166
5.184959987e-166
6.499259461e-166
8.698650721e-166
1.238822823e-165
1.866561122e-165
2.958320326e-165
4.873301402e-165
7.233615008e-166
1.057362459e-158
2.145793001e-159
5.680011544e-160
8.634530037e-159
8.543276041e-156
1.249824843e-152
2.386136176e-149
1.435339195e-146
9.765152874e-147
7.772754857e-141
1.105526414e-147
5.917009837e-126
2.520530166e-126
3.406780491e-145
5.148808792e-93
0
5.852613809e-82
7.908678971e-101
5.212717913e-76
2.3591475e-64
2.918240011e-72
7.600952894e-54
7.37106165e-53
0
8.840991252e-06
-0.01456586735
0.4675988648
7.34134834e-164
3.672445461e-164
2.959249244e-164
2.875652275e-164
2.867188496e-164
3.325539708e-164
4.107600835e-164
5.406744262e-164
7.556670994e-164
1.115604034e-163
1.729399874e-163
2.784286068e-163
3.310862461e-164
5.940226435e-157
1.174044727e-157
2.896776888e-158
1.238915046e-157
6.034532529e-155
1.563771401e-152
4.330325219e-150
7.885961015e-147
1.591014041e-143
1.769388227e-155
4.005884825e-129
1.647826608e-126
6.881019025e-127
7.583396327e-148
6.332930282e-93
2.063758221e-113
2.044661614e-82
7.954467567e-83
2.295730416e-102
1.841910638e-64
7.551973804e-86
6.531309132e-54
1.882421412e-54
4.09967476e-74
1.867209529e-05
-0.0158573378
0.471272462
4.469341141e-162
2.219740484e-162
1.77492189e-162
1.70683399e-162
1.686877205e-162
1.930832263e-162
2.349905176e-162
3.041849228e-162
4.171844294e-162
6.033621889e-162
9.145239854e-162
1.43833263e-161
1.439939642e-162
2.935430059e-155
5.653510715e-156
1.331438256e-156
2.186477288e-156
7.722564269e-154
1.627168746e-151
6.340918411e-150
4.074258891e-147
1.590424416e-143
1.034717078e-162
2.688551198e-125
9.831855994e-126
6.13083964e-127
9.609506902e-146
6.279783235e-93
2.090038516e-112
1.522614688e-82
7.246943067e-83
0
4.746182469e-65
1.17505668e-87
1.824799424e-54
2.735285954e-55
0
3.023563786e-05
-0.01720724679
0.4756383489
2.470009742e-160
1.217313084e-160
9.657449829e-161
9.189729046e-161
9.004506604e-161
1.017089587e-160
1.219695785e-160
1.552601708e-160
2.089131008e-160
2.958822031e-160
4.382166517e-160
6.727421642e-160
6.080899624e-161
1.268389265e-153
2.390225343e-154
5.478555374e-155
4.373414144e-155
8.621667067e-153
1.557978905e-150
3.645271679e-149
1.513100593e-147
1.575672725e-143
1.425047995e-163
8.582034437e-123
2.823253266e-123
1.094374115e-124
1.002491549e-144
5.458083261e-93
1.02078357e-114
1.208056149e-82
4.097678045e-83
4.820680705e-104
2.43329883e-66
0
9.565599503e-56
1.397725575e-56
7.084358736e-76
4.300854649e-05
-0.0186080723
0.4806190334
1.240035798e-158
6.063714945e-159
4.773605254e-159
4.495477365e-159
4.368681658e-159
4.869647003e-159
5.75391909e-159
7.201088215e-159
9.501852447e-159
1.316781585e-158
1.903546002e-158
2.848996393e-158
2.551859128e-159
4.753328482e-152
8.873452077e-153
2.009292608e-153
1.011104736e-153
8.336775266e-152
1.256378419e-149
1.576171621e-148
6.157723212e-147
1.560649481e-143
0
3.137416386e-121
1.044801657e-121
3.905362646e-123
1.310833847e-143
2.783176467e-93
8.599351018e-113
6.999560022e-83
7.508849238e-84
7.788254358e-102
1.610690034e-68
3.374948475e-90
5.872301397e-58
1.077332568e-58
1.296774904e-83
5.628789222e-05
-0.02005116535
0.4860958349
5.656774504e-157
2.746258075e-157
2.146367244e-157
2.000938161e-157
1.929197387e-157
2.121840405e-157
2.469469496e-157
3.036425427e-157
3.924803094e-157
5.314460936e-157
7.487022772e-157
1.090892783e-156
1.084622187e-157
1.535715844e-150
2.909954629e-151
6.542710818e-152
2.447688416e-152
7.023512702e-151
8.373053656e-149
4.450287118e-148
4.192130155e-146
1.375137707e-143
3.044955748e-164
2.361474635e-120
8.067939687e-121
3.003252719e-122
1.530313747e-142
5.745776123e-94
0
2.12523801e-83
0
5.610538234e-73
9.63094027e-72
2.588669404e-86
2.835437631e-61
7.371907908e-62
1.276375672e-90
6.81406e-05
-0.02154793528
0.4919165278
2.345777729e-155
1.132166523e-155
8.789641526e-156
8.111761569e-156
7.759369183e-156
8.414841803e-156
9.636151059e-156
1.162344546e-155
1.469071234e-155
1.939787195e-155
2.658668391e-155
3.767263584e-155
4.689449195e-156
4.332581536e-149
8.522087471e-150
1.900134305e-150
5.595873011e-151
5.303979853e-150
4.485426155e-148
5.810362157e-148
7.219954812e-144
1.133816502e-142
0
6.236438024e-120
2.095763465e-120
7.013829157e-122
7.4588511e-127
3.25973528e-95
1.313943244e-112
2.382179784e-84
0
3.566338267e-73
0
7.362350217e-68
1.052459822e-65
3.446626378e-66
1.307761295e-90
7.692050138e-05
-0.02309743239
0.4979462073
8.852430343e-154
4.253212642e-154
3.279739905e-154
2.99382366e-154
2.838683363e-154
3.030015057e-154
3.40684059e-154
4.021616109e-154
4.958203199e-154
6.371797163e-154
8.489388174e-154
1.170461719e-153
2.025339721e-154
1.140653813e-147
2.214598109e-148
5.16036814e-149
1.156379656e-149
3.899846234e-149
1.85658631e-147
3.37285798e-151
1.360383271e-140
2.769998745e-140
0
9.933903248e-120
2.836021698e-120
1.088758509e-121
1.490223385e-108
3.373392302e-97
8.47029872e-121
6.65313906e-86
3.777887138e-105
5.349074178e-74
2.583463288e-98
4.93051948e-68
1.117472693e-68
9.664508621e-70
1.208249516e-100
8.279883116e-05
-0.02470485161
0.5040783512
3.044668502e-152
1.455206842e-152
1.112380523e-152
1.001759161e-152
9.393538135e-153
9.83786009e-153
1.082772509e-152
1.24741161e-152
1.49755356e-152
1.872828022e-152
2.43058666e-152
3.272152899e-152
8.430606079e-153
3.088906067e-146
4.704248355e-147
1.50794745e-147
2.200717172e-148
3.265895375e-148
5.653883485e-147
3.452851408e-153
3.866094425e-138
1.359953345e-138
0
3.353716424e-119
5.210447123e-120
3.265599013e-121
1.431004485e-101
3.41650135e-110
4.364986711e-93
3.094257002e-88
1.839826772e-107
1.070589491e-75
1.072426065e-100
7.570719694e-69
6.609438595e-70
2.031538355e-71
2.044887493e-98
8.436673321e-05
-0.02635607627
0.5101913575
9.536326954e-151
4.50741949e-151
3.398273106e-151
3.004990635e-151
2.776486952e-151
2.842133305e-151
3.054281335e-151
3.431441097e-151
4.019646336e-151
4.917360717e-151
6.261011636e-151
8.277906956e-151
3.244913023e-151
1.344822899e-144
6.84779696e-146
5.076702595e-146
3.954372872e-147
3.580960812e-147
1.222228475e-146
1.054817644e-156
2.810411125e-134
7.7430019e-136
6.410916529e-156
7.452342721e-119
1.121456716e-119
4.370316424e-138
9.506178716e-102
1.048658863e-109
1.055432007e-91
1.275373413e-89
0
1.812028684e-78
5.37945547e-103
1.480066173e-70
1.191094103e-71
2.827178622e-73
2.082068178e-96
8.234235405e-05
-0.02801712746
0.5161708971
2.693300572e-149
1.241895729e-149
9.16039323e-150
7.908248289e-150
7.176387395e-150
7.169504073e-150
7.541941899e-150
8.323626348e-150
9.630134134e-150
1.168204339e-149
1.472531922e-149
1.910351005e-149
1.106114224e-149
2.870411176e-143
1.266673464e-141
1.074661456e-143
5.514000088e-146
4.849661362e-146
2.721551941e-146
2.805829627e-161
2.291757981e-129
4.844419738e-131
4.180370518e-150
7.3969298e-119
4.747577233e-119
2.792327948e-135
1.65112957e-102
4.796757635e-104
0
9.834603514e-85
3.974884442e-83
1.853347772e-82
8.81060216e-102
7.842007202e-72
2.745538122e-73
1.293765574e-75
5.131572335e-95
7.668974089e-05
-0.02970762569
0.5219247092
6.654945513e-148
2.936402859e-148
2.103595393e-148
1.769963365e-148
1.583056652e-148
1.560061073e-148
1.63868275e-148
1.824878089e-148
2.138042447e-148
2.596477884e-148
3.20272052e-148
3.963996642e-148
3.282309967e-148
7.539475707e-150
1.608158229e-136
9.582442987e-139
1.654371832e-142
6.061009763e-144
6.167698234e-145
0
1.736270129e-124
2.462119979e-126
2.895948241e-145
6.545665671e-119
3.929803436e-117
3.876861153e-117
4.191973546e-104
7.878032701e-104
0
2.852865213e-80
5.438105289e-82
4.028057336e-83
2.144225848e-81
1.347160466e-70
8.841112558e-71
7.078365275e-72
0
6.713261587e-05
-0.03142537073
0.5273953739
1.350441883e-146
5.634847096e-147
3.954060819e-147
3.312390845e-147
3.015736621e-147
3.081004651e-147
3.415291593e-147
3.985658644e-147
4.696631584e-147
5.420966565e-147
6.105300002e-147
6.75173796e-147
6.494646316e-147
8.545211612e-160
1.905680089e-131
6.034630979e-134
1.624302526e-137
4.007778109e-139
3.371022724e-140
0
1.022006136e-119
8.230013319e-122
4.145582982e-140
1.211975963e-119
3.968447063e-116
2.046999136e-109
1.039194931e-112
7.184999507e-101
0
2.259907126e-77
5.324024047e-79
5.389652136e-82
6.911882368e-79
0
4.299898373e-66
3.545943467e-67
6.468179828e-86
5.342435824e-05
-0.03320896552
0.5324648808
2.037104681e-145
8.537054292e-146
6.429256879e-146
5.967861614e-146
6.121665078e-146
7.094361781e-146
8.496932678e-146
9.661526835e-146
9.773135331e-146
9.121537435e-146
8.427276648e-146
7.829624021e-146
6.630029269e-146
1.123882242e-160
1.635719762e-127
9.269229515e-130
1.773298468e-132
2.447187172e-134
1.768754158e-135
0
1.600948538e-116
1.887400951e-118
1.014949396e-121
4.338797726e-136
1.501239666e-114
1.068359362e-109
5.356381055e-113
3.130328977e-99
5.907511243e-118
5.507675305e-76
2.738129082e-76
5.154240286e-82
1.56399607e-73
4.131572153e-92
2.510567285e-61
1.552246589e-62
0
3.603805499e-05
-0.03499893022
0.5370203978
2.550754534e-144
1.678826843e-144
1.799861751e-144
2.223107465e-144
2.889020532e-144
4.328516918e-144
7.034739532e-144
1.236506918e-143
2.351815248e-143
4.837129521e-143
1.075002888e-142
2.576958028e-142
6.661172255e-142
6.425479685e-161
2.266182948e-125
3.087373745e-125
2.060661263e-127
1.377726622e-129
8.578604422e-131
0
8.145874323e-115
4.31562547e-115
4.888913573e-117
0
1.065133802e-109
5.634412641e-127
5.12876521e-103
1.025347791e-98
2.495966612e-101
4.960706797e-76
1.201282335e-71
4.31376416e-73
6.913392616e-70
6.348374864e-89
1.26658203e-56
4.557615625e-58
1.085241314e-78
2.825882677e-05
-0.03683184399
0.5409897075
1.32087397e-139
1.415513641e-139
1.744429184e-139
2.279953957e-139
3.04070097e-139
4.587948493e-139
7.418822686e-139
1.287647091e-138
2.406906199e-138
4.853079307e-138
1.055662631e-137
2.473417723e-137
6.234998179e-137
4.478131746e-150
7.86500835e-125
2.784792956e-120
1.433803244e-122
7.09395552e-125
3.846026358e-126
2.128410439e-139
2.103548789e-114
2.683962683e-110
2.699833115e-112
1.505337526e-131
2.154908932e-107
8.27672232e-127
1.365235257e-98
1.674151813e-114
7.781372565e-83
2.740512316e-93
6.441671161e-68
1.462403375e-69
9.511863538e-68
1.882680262e-86
1.989311352e-53
5.980174392e-55
5.382843042e-74
1.851999703e-05
-0.03863022395
0.5445386154
1.414251372e-134
1.509068714e-134
1.84818288e-134
2.393598167e-134
3.171384751e-134
4.724443524e-134
7.531433988e-134
1.286247403e-133
2.361011859e-133
4.665845073e-133
9.930422275e-133
2.273053877e-132
5.585304372e-132
1.441289963e-131
0
2.197843496e-115
6.093875876e-118
3.321045254e-120
1.58881978e-121
6.17522918e-121
0
7.194981685e-107
6.324095143e-109
5.074476601e-125
3.644114684e-106
0
5.022899559e-95
0
2.347177028e-78
6.094061633e-94
1.325759346e-65
3.917717732e-67
6.719620264e-67
2.576787458e-74
1.268991261e-51
6.813838326e-53
3.515856372e-72
5.477987139e-06
-0.04051479483
0.5479917592
1.456638006e-129
1.547528499e-129
1.883340746e-129
2.416769355e-129
3.180335334e-129
4.676658492e-129
7.347765477e-129
1.234375107e-128
2.224185722e-128
4.306176692e-128
8.962920268e-128
2.003226687e-127
4.799693373e-127
1.235035007e-126
0
8.819875735e-112
3.449154946e-114
1.406885693e-115
6.016182367e-117
2.382704296e-116
0
6.727254737e-105
1.149198679e-106
2.179861092e-106
9.285115951e-106
0
1.385488111e-92
0
3.599113278e-75
2.777660326e-77
1.318521989e-64
8.561348355e-65
1.014617059e-66
2.332547756e-56
6.168453321e-51
1.709162745e-50
1.225792438e-69
-1.099237242e-05
-0.04239075187
0.5518402929
1.445607047e-124
1.529033773e-124
1.848925461e-124
2.350681586e-124
3.071540226e-124
4.457425425e-124
6.900442378e-124
1.13991159e-123
2.015488508e-123
3.821194734e-123
7.774286843e-123
1.695663366e-122
3.959295301e-122
9.911627635e-122
0
1.052592632e-109
1.531728563e-110
5.352544956e-111
2.062215433e-112
7.882771533e-112
3.461712692e-126
4.098488029e-104
3.758457784e-103
7.217872186e-102
9.212839731e-106
1.826006929e-93
4.543899071e-91
1.189916199e-110
3.900032218e-73
2.255185642e-75
0
3.417143723e-60
8.434825769e-71
1.655004256e-51
6.289061093e-52
5.476069985e-46
0
-3.209901878e-05
-0.04449977503
0.556467731
1.384631164e-119
1.457993721e-119
1.751570391e-119
2.206176594e-119
2.861583278e-119
4.097361308e-119
6.248131071e-119
1.014616671e-118
1.759657766e-118
3.265500754e-118
6.490699873e-118
1.380766622e-117
3.139954696e-117
7.642843246e-117
2.962220979e-130
7.095090892e-109
5.581302538e-106
1.786718573e-106
6.098463481e-108
2.334397924e-107
1.266513839e-107
4.175282466e-109
8.702554367e-99
2.238005483e-97
9.136744278e-106
4.27776316e-91
2.995778617e-90
0
4.798239335e-72
3.387825425e-73
0
1.782524691e-56
6.661904242e-67
1.16754623e-49
6.497793724e-52
3.771262414e-42
0
-2.70271724e-05
-0.04668139615
0.5622012913
1.282099549e-114
1.343906864e-114
1.603863037e-114
2.001201334e-114
2.575926249e-114
3.638376551e-114
5.463692248e-114
8.718655636e-114
1.482593343e-113
2.691826071e-113
5.224436448e-113
1.083329307e-112
2.397770595e-112
5.671716541e-112
1.415566205e-111
1.267055153e-115
1.246188816e-102
5.018777314e-102
1.583094172e-103
6.085863307e-103
4.029103871e-103
4.494962436e-109
1.18411771e-95
1.877318529e-93
9.036756129e-106
1.117155548e-89
6.58975373e-90
3.202261512e-109
1.074998063e-71
1.085405754e-72
2.857876312e-92
4.214420502e-54
0
8.557614667e-49
6.166629292e-52
1.682472321e-39
2.864831244e-59
-5.454213437e-05
-0.04911856535
0.569129552
1.149582103e-109
1.199456338e-109
1.421878227e-109
1.757400474e-109
2.244165231e-109
3.126179225e-109
4.621735964e-109
7.244903665e-109
1.207475654e-108
2.143894751e-108
4.060792017e-108
8.202722443e-108
1.765864369e-107
4.057964176e-107
9.986560843e-107
4.723504208e-120
1.864271752e-100
1.757320381e-98
3.171042609e-99
1.360571927e-98
8.83811653e-99
4.094907364e-109
1.346009825e-93
1.099509874e-90
8.712626708e-91
6.491493559e-89
7.567409355e-90
0
1.065776084e-71
1.270896439e-72
0
6.724849794e-53
1.257393229e-51
1.204846535e-48
6.369946296e-52
7.412328415e-38
5.414346839e-58
-8.729389302e-05
-0.05181245442
0.5770954
9.997179969e-105
1.038284633e-104
1.222479586e-104
1.496637705e-104
1.895390772e-104
2.603487571e-104
3.788263803e-104
5.831551879e-104
9.522009042e-104
1.652522707e-103
3.053007398e-103
6.00380438e-103
1.256244006e-102
2.802454032e-102
6.686215742e-102
1.694690742e-101
5.096227807e-99
5.377576238e-96
5.359215198e-95
2.514593633e-94
1.659023387e-94
6.118386387e-99
2.519152253e-92
7.298930352e-89
2.922277526e-88
1.669210974e-88
1.268105088e-90
1.607529298e-93
9.43558457e-72
1.026347499e-72
0
1.257899051e-52
3.620279757e-49
1.199811983e-48
6.043975148e-52
5.308781571e-37
1.989763663e-59
-0.0001259872902
-0.05488450915
0.5857036016
8.446619126e-100
8.731848026e-100
1.021044873e-99
1.238154402e-99
1.554553683e-99
2.105123253e-99
3.013968302e-99
4.554614386e-99
7.283150565e-99
1.234875563e-98
2.223976844e-98
4.254987485e-98
8.647293121e-98
1.871139169e-97
4.324999873e-97
1.065233282e-96
2.784821192e-96
3.900950922e-94
1.526300555e-91
3.351177514e-90
2.522828885e-90
1.570655554e-92
2.469254439e-91
1.066478173e-87
1.593198029e-86
5.373599056e-88
2.639000726e-105
3.517932083e-75
4.120580261e-72
2.003533215e-72
1.034345687e-74
1.42093013e-71
5.775850667e-48
1.33375006e-48
6.241844121e-52
9.499348517e-37
1.320946945e-57
-0.0001719092058
-0.05832895135
0.5943769203
6.945676418e-95
7.146895806e-95
8.299139e-95
9.96802182e-95
1.240313487e-94
1.655542333e-94
2.331650397e-94
3.457788995e-94
5.412690365e-94
8.961712741e-94
1.572435757e-93
2.924958309e-93
5.769124792e-93
1.209838636e-92
2.706283481e-92
6.443489285e-92
1.624269099e-91
4.528727145e-91
7.994556422e-89
5.95463147e-87
1.59289619e-86
1.766889373e-88
2.472112999e-88
9.735080572e-87
3.642324521e-85
5.820694986e-86
0
6.815541752e-75
8.118575334e-73
6.070578861e-70
4.926198288e-72
7.970554779e-63
1.116971004e-47
1.644256938e-44
2.590259432e-39
9.412040555e-37
2.057972067e-61
-0.0002264046679
-0.06228251348
0.6023506709
5.568543774e-90
5.703364112e-90
6.576359905e-90
7.823494906e-90
9.64379013e-90
1.268585684e-89
1.75708537e-89
2.556252703e-89
3.915513655e-89
6.327428481e-89
1.081003529e-88
1.953680382e-88
3.736915038e-88
7.588063847e-88
1.640980146e-87
3.771608367e-87
9.180410002e-87
2.416242461e-86
8.041194155e-86
2.789878482e-84
1.938732838e-83
3.361994176e-84
1.054661361e-83
4.80422942e-83
2.526647326e-82
1.597132068e-81
0
4.785246205e-75
2.019536347e-72
2.862674961e-68
1.290134575e-70
1.829398792e-54
4.059837392e-60
7.245814352e-41
1.242517648e-38
9.327890847e-37
1.891439295e-59
-0.0002916589192
-0.06671190605
0.6088110795
4.360569019e-85
4.445713267e-85
5.08973804e-85
5.997154654e-85
7.320472198e-85
9.488653973e-85
1.292163824e-84
1.843566012e-84
2.762082904e-84
4.354324638e-84
7.23897689e-84
1.270211108e-83
2.354253135e-83
4.624439092e-83
9.65818094e-83
2.140253549e-82
5.021684265e-82
1.272921536e-81
3.480344973e-81
1.069504254e-80
3.946245311e-80
1.179948816e-79
4.502096388e-79
1.978262406e-78
9.925483546e-78
5.827920162e-77
4.164814381e-76
3.858630131e-76
1.046749065e-70
2.905430019e-67
1.092026069e-70
5.654958411e-56
2.114449211e-61
7.41040428e-40
3.46694858e-38
6.809697779e-37
1.118694012e-57
-0.0003694064279
-0.07158175696
0.6131213437
3.341196575e-80
3.391173858e-80
3.85444717e-80
4.498242763e-80
5.434954257e-80
6.940471076e-80
9.290384571e-80
1.299451265e-79
1.903503599e-79
2.925950943e-79
4.730583794e-79
8.053248028e-79
1.445111539e-78
2.743232421e-78
5.526797748e-78
1.179362608e-77
2.662652183e-77
6.486847179e-77
1.702585814e-76
4.822579402e-76
1.479924403e-75
4.96639677e-75
1.861803637e-74
7.871896448e-74
3.820637702e-73
2.180057147e-72
1.521906951e-71
1.371653192e-70
3.648399497e-69
1.559997153e-66
3.605594293e-65
0
2.418452815e-43
2.220433657e-39
5.474343542e-38
2.587281305e-37
7.751773179e-63
-0.0004611617781
-0.07675475327
0.615078879
2.509544543e-75
2.536034171e-75
2.861413336e-75
3.307411834e-75
3.953701605e-75
4.973501428e-75
6.54233071e-75
8.96809401e-75
1.283904645e-74
1.92335244e-74
3.02225137e-74
4.987974559e-74
8.658286108e-74
1.586705106e-73
3.080112748e-73
6.320741924e-73
1.371005729e-72
3.204030937e-72
8.057986996e-72
2.184544008e-71
6.410531118e-71
2.059291056e-70
7.401100059e-70
3.004640048e-69
1.405473504e-68
7.770402669e-68
5.290588462e-67
4.703190067e-66
6.010781997e-65
1.280323291e-63
4.881101614e-62
8.447955201e-82
1.115345971e-42
3.066282536e-39
5.392198666e-38
4.173781884e-38
4.129725301e-61
-0.0005685130771
-0.08215580031
0.6149905672
1.850879332e-70
1.862671026e-70
2.086057264e-70
2.388109209e-70
2.823124088e-70
3.497800389e-70
4.520503678e-70
6.070918206e-70
8.490853178e-70
1.239012615e-69
1.891058304e-69
3.023522295e-69
5.072412361e-69
8.964235329e-69
1.674576273e-68
3.300094052e-68
6.865642712e-68
1.536266975e-67
3.694291831e-67
9.56474766e-67
2.679017787e-66
8.21919975e-66
2.823648352e-65
1.097957714e-64
4.936019703e-64
2.637403676e-63
1.747651732e-62
1.532742831e-61
1.992367907e-60
4.432975393e-59
1.841185171e-57
0
1.595214065e-42
2.082325233e-39
3.801626702e-38
5.136849274e-39
1.367429917e-59
-0.0006861505455
-0.08760030024
0.6137653789
1.342671732e-65
1.345967998e-65
1.496012923e-65
1.696181055e-65
1.982005255e-65
2.418365498e-65
3.069975706e-65
4.037993486e-65
5.515150927e-65
7.835581375e-65
1.160905158e-64
1.796799761e-64
2.910771468e-64
4.955206334e-64
8.896503021e-64
1.681229877e-63
3.348943509e-63
7.160784118e-63
1.642781899e-62
4.052155901e-62
1.080561769e-61
3.157425017e-61
1.03394877e-60
3.839878255e-60
1.654373006e-59
8.519785901e-59
5.485930716e-58
4.764002247e-57
6.361274283e-56
1.4796599e-54
6.664320988e-53
0
1.03431075e-42
6.719354962e-40
1.327782913e-38
1.457495644e-39
1.034226441e-58
-0.0008036190973
-0.09288428249
0.6120772598
9.594678342e-61
9.58366891e-61
1.05702071e-60
1.186891656e-60
1.370261894e-60
1.646354461e-60
2.052405797e-60
2.643192288e-60
3.524159811e-60
4.872604046e-60
7.003803755e-60
1.048629547e-59
1.638913466e-59
2.684619701e-59
4.626392357e-59
8.371167664e-59
1.593699406e-58
3.249550937e-58
7.095177249e-58
1.663108133e-57
4.210689501e-57
1.16832874e-56
3.635567665e-56
1.285474236e-55
5.291034938e-55
2.61834868e-54
1.636859088e-53
1.416273291e-52
1.955400794e-51
4.746936078e-50
2.319666452e-48
1.746168819e-46
4.821717316e-43
1.638704298e-40
9.23764125e-39
2.627616438e-37
0
-0.0008981549966
-0.09775517387