/*--------------------------------*- C++ -*----------------------------------*\
| =========                 |                                                 |
| \\      /  F ield         | OpenFOAM: The Open Source CFD Toolbox           |
|  \\    /   O peration     | Version:  v1912                                 |
|   \\  /    A nd           | Website:  www.openfoam.com                      |
|    \\/     M anipulation  |                                                 |
\*---------------------------------------------------------------------------*/
FoamFile
{
    version     2.0;
    format      ascii;
    class       volScalarField;
    location    "0.4";
    object      k.gas_0;
}
// * * * * * * * * * * * * * * * * * * * * * * * * * * * * * * * * * * * * * //

dimensions      [0 2 -2 0 0 0 0];


internalField   nonuniform List<scalar> 
4800
(
3.416194683e-07
4.117765049e-07
4.409668063e-07
4.587730731e-07
4.717789262e-07
4.823807201e-07
4.917476679e-07
5.00558556e-07
5.092642116e-07
5.182006935e-07
5.276453511e-07
5.378480186e-07
5.490505127e-07
5.615003002e-07
5.754614468e-07
5.912244847e-07
6.091163538e-07
6.295112345e-07
6.528430921e-07
6.796207679e-07
7.104466564e-07
7.460403108e-07
7.872687844e-07
8.35186288e-07
8.910868438e-07
9.565753461e-07
1.033665327e-06
1.124916252e-06
1.233630905e-06
1.364146899e-06
1.522280804e-06
1.716024266e-06
1.956745781e-06
2.260570937e-06
2.656491559e-06
3.173988185e-06
3.830971156e-06
5.666299387e-06
2.490027002e-06
1.658770218e-05
9.582005399e-07
1.213488809e-06
1.325734041e-06
1.394000575e-06
1.441791019e-06
1.477880108e-06
1.506497123e-06
1.529983594e-06
1.549761736e-06
1.566755238e-06
1.58159534e-06
1.594731149e-06
1.606492815e-06
1.617129796e-06
1.626835055e-06
1.63576099e-06
1.644030242e-06
1.651743289e-06
1.658983902e-06
1.66582321e-06
1.672322832e-06
1.678537392e-06
1.68451667e-06
1.690307594e-06
1.695956208e-06
1.701509927e-06
1.707020255e-06
1.712546415e-06
1.718160511e-06
1.723955179e-06
1.730056113e-06
1.73662949e-06
1.744093122e-06
1.750951242e-06
1.774606931e-06
1.713248519e-06
1.960786012e-06
1.454194989e-06
2.800045589e-06
5.454767591e-05
9.092144809e-07
1.148954425e-06
1.254140882e-06
1.318102419e-06
1.362893575e-06
1.396728354e-06
1.423560385e-06
1.445576597e-06
1.464104445e-06
1.480005652e-06
1.493868898e-06
1.506112862e-06
1.517045228e-06
1.526898387e-06
1.535852022e-06
1.544047939e-06
1.551600149e-06
1.558601908e-06
1.565130789e-06
1.571252424e-06
1.577023376e-06
1.58249342e-06
1.58770747e-06
1.592707293e-06
1.597533249e-06
1.602226162e-06
1.606829634e-06
1.611393113e-06
1.615976331e-06
1.620656041e-06
1.625537077e-06
1.630764894e-06
1.63663032e-06
1.642796504e-06
1.655965949e-06
1.630079263e-06
1.866890574e-06
1.614176148e-06
4.728760839e-06
7.73474343e-05
9.123403678e-07
1.153066388e-06
1.258681821e-06
1.322901129e-06
1.367870437e-06
1.401839718e-06
1.428780161e-06
1.450888487e-06
1.469498136e-06
1.485474751e-06
1.499409721e-06
1.511723686e-06
1.522725817e-06
1.532649678e-06
1.541675911e-06
1.54994715e-06
1.557578145e-06
1.564662846e-06
1.571279501e-06
1.577494431e-06
1.583364923e-06
1.588941536e-06
1.594270041e-06
1.599393175e-06
1.604352373e-06
1.609189652e-06
1.613949873e-06
1.618683693e-06
1.623451676e-06
1.628330292e-06
1.633421242e-06
1.638861706e-06
1.644894258e-06
1.651503871e-06
1.66010437e-06
1.67603294e-06
1.71407297e-06
5.500290898e-07
5.478920219e-06
9.5473241e-05
9.120708692e-07
1.152708449e-06
1.258275758e-06
1.322466098e-06
1.367414084e-06
1.401366245e-06
1.428292072e-06
1.450387325e-06
1.468984852e-06
1.484949905e-06
1.498873599e-06
1.511176373e-06
1.522167242e-06
1.53207964e-06
1.541094096e-06
1.549353132e-06
1.556971384e-06
1.56404267e-06
1.570645084e-06
1.576844749e-06
1.582698697e-06
1.588257141e-06
1.593565382e-06
1.598665493e-06
1.603597957e-06
1.608403394e-06
1.613124559e-06
1.61780885e-06
1.622511636e-06
1.627300866e-06
1.632263552e-06
1.637515667e-06
1.643201014e-06
1.649732922e-06
1.655285092e-06
1.6764818e-06
1.630121725e-06
1.702613161e-06
4.612131306e-06
0.0001119466071
9.120327499e-07
1.152659603e-06
1.258211419e-06
1.322392869e-06
1.367333622e-06
1.401279543e-06
1.428199782e-06
1.450289894e-06
1.468882598e-06
1.484843061e-06
1.498762341e-06
1.511060834e-06
1.522047524e-06
1.531955817e-06
1.540966214e-06
1.549221206e-06
1.556835389e-06
1.563902524e-06
1.570500624e-06
1.576695696e-06
1.582544602e-06
1.588097309e-06
1.593398754e-06
1.59849048e-06
1.603412176e-06
1.608203265e-06
1.612904672e-06
1.617560946e-06
1.622222941e-06
1.626951329e-06
1.631821149e-06
1.636930305e-06
1.64236266e-06
1.648841474e-06
1.651322884e-06
1.674138272e-06
1.767091681e-06
3.753691716e-06
2.412332596e-05
0.0001282065713
9.119807527e-07
1.152592811e-06
1.258125178e-06
1.322295493e-06
1.367227267e-06
1.401165487e-06
1.428078853e-06
1.45016265e-06
1.468749424e-06
1.484704232e-06
1.498618051e-06
1.510911219e-06
1.521892673e-06
1.531795779e-06
1.540800996e-06
1.549050772e-06
1.556659643e-06
1.563721296e-06
1.570313638e-06
1.576502529e-06
1.582344622e-06
1.587889587e-06
1.593181937e-06
1.598262602e-06
1.603170383e-06
1.607943399e-06
1.612620643e-06
1.617243761e-06
1.621859212e-06
1.626520958e-06
1.631293874e-06
1.636258377e-06
1.641504598e-06
1.647397948e-06
1.650531426e-06
1.687781829e-06
1.532350675e-06
1.060383003e-06
2.09183716e-05
0.0001433151029
9.119316351e-07
1.152530709e-06
1.258042351e-06
1.322200944e-06
1.367123194e-06
1.401053213e-06
1.427959244e-06
1.450036297e-06
1.468616745e-06
1.484565525e-06
1.498473536e-06
1.510761052e-06
1.521736963e-06
1.531634592e-06
1.540634354e-06
1.548878647e-06
1.556481946e-06
1.563537853e-06
1.570124163e-06
1.576306574e-06
1.582141514e-06
1.587678339e-06
1.592961111e-06
1.598030127e-06
1.602923281e-06
1.607677397e-06
1.612329594e-06
1.616918814e-06
1.62148759e-06
1.626084201e-06
1.630765482e-06
1.635598646e-06
1.640694727e-06
1.645884369e-06
1.652793741e-06
1.670909996e-06
1.431773671e-06
3.170909243e-06
3.180120284e-05
0.0001602183487
9.11884352e-07
1.152471898e-06
1.257961411e-06
1.322107619e-06
1.36701975e-06
1.400941026e-06
1.427839225e-06
1.449909073e-06
1.468482762e-06
1.48442511e-06
1.498326927e-06
1.510608426e-06
1.521578445e-06
1.531470262e-06
1.540464246e-06
1.548702743e-06
1.55630016e-06
1.563350013e-06
1.569929973e-06
1.576105571e-06
1.581933001e-06
1.587461288e-06
1.592734039e-06
1.597790911e-06
1.602668906e-06
1.607403597e-06
1.612030358e-06
1.616585687e-06
1.621108725e-06
1.625643101e-06
1.630239318e-06
1.634958609e-06
1.639862855e-06
1.645335065e-06
1.647345116e-06
1.691452417e-06
1.459930084e-06
9.92706674e-07
3.046910377e-05
0.0001768088035
9.118390846e-07
1.152416652e-06
1.257882707e-06
1.322015926e-06
1.366917385e-06
1.400829415e-06
1.42771932e-06
1.449781533e-06
1.468348062e-06
1.484283598e-06
1.498178863e-06
1.510454008e-06
1.521417816e-06
1.531303517e-06
1.540291437e-06
1.548523864e-06
1.55611514e-06
1.563158688e-06
1.569732055e-06
1.575900601e-06
1.58172028e-06
1.587239788e-06
1.592502278e-06
1.59754678e-06
1.602409441e-06
1.607124663e-06
1.611726226e-06
1.616248472e-06
1.620727665e-06
1.625203663e-06
1.629722137e-06
1.634338958e-06
1.639097885e-06
1.644616228e-06
1.642616499e-06
1.740195064e-06
8.989766962e-07
4.025211994e-06
6.630893359e-05
0.0001950218884
9.117959413e-07
1.152365144e-06
1.257806483e-06
1.321926155e-06
1.366816433e-06
1.40071875e-06
1.42759993e-06
1.449654108e-06
1.4682131e-06
1.484141471e-06
1.498029853e-06
1.510298329e-06
1.521255631e-06
1.531134942e-06
1.54011654e-06
1.548342661e-06
1.555927577e-06
1.562964621e-06
1.569531216e-06
1.57569255e-06
1.581504341e-06
1.58701496e-06
1.592267119e-06
1.597299249e-06
1.602146689e-06
1.60684276e-06
1.611419805e-06
1.615910283e-06
1.620348017e-06
1.624769767e-06
1.629217345e-06
1.63374281e-06
1.638366452e-06
1.644048991e-06
1.637291387e-06
1.780666225e-06
7.143606573e-07
2.419913924e-06
9.419626211e-05
0.0002150468778
9.117550478e-07
1.152317567e-06
1.257733006e-06
1.32183863e-06
1.366717261e-06
1.400609439e-06
1.427481498e-06
1.449527271e-06
1.468078381e-06
1.483999261e-06
1.497880454e-06
1.510141975e-06
1.521092504e-06
1.530965179e-06
1.539940231e-06
1.548159844e-06
1.555738224e-06
1.562768617e-06
1.569328323e-06
1.575482363e-06
1.581286226e-06
1.58678797e-06
1.592029883e-06
1.597049828e-06
1.601882393e-06
1.606559908e-06
1.611113429e-06
1.615573759e-06
1.619972623e-06
1.62434416e-06
1.628726928e-06
1.63316975e-06
1.637669128e-06
1.643580096e-06
1.630679194e-06
1.845082113e-06
1.702125894e-07
6.602858346e-06
0.0001245687651
0.0002368964695
9.117165412e-07
1.152274128e-06
1.257662565e-06
1.321753697e-06
1.366620265e-06
1.400501916e-06
1.427364497e-06
1.44940153e-06
1.467944443e-06
1.483857537e-06
1.497731264e-06
1.509985572e-06
1.520929089e-06
1.530794911e-06
1.539763224e-06
1.547976165e-06
1.555547876e-06
1.562571519e-06
1.569124279e-06
1.575271017e-06
1.581067001e-06
1.586559991e-06
1.591791874e-06
1.596799982e-06
1.601618202e-06
1.606277962e-06
1.610809156e-06
1.615241118e-06
1.619603727e-06
1.623928819e-06
1.62825206e-06
1.632618685e-06
1.637015069e-06
1.642916869e-06
1.629097671e-06
1.767690593e-06
2.714823149e-06
9.815767953e-06
0.0001559351367
0.0002606893151
9.116805705e-07
1.15223505e-06
1.257595464e-06
1.321671723e-06
1.366525861e-06
1.400396646e-06
1.42724943e-06
1.449277425e-06
1.46781186e-06
1.483716904e-06
1.497582916e-06
1.509829782e-06
1.520766079e-06
1.530624861e-06
1.539586276e-06
1.547792415e-06
1.555357364e-06
1.562374206e-06
1.568920019e-06
1.575059512e-06
1.580847746e-06
1.5863322e-06
1.591554382e-06
1.596551126e-06
1.601355675e-06
1.605998624e-06
1.610508815e-06
1.614914255e-06
1.61924316e-06
1.623525269e-06
1.627793556e-06
1.632089605e-06
1.636393221e-06
1.642199433e-06
1.629398703e-06
1.71456038e-06
2.759718522e-06
1.356636533e-05
0.0001888686906
0.0002866044542
9.116472969e-07
1.152200565e-06
1.257532026e-06
1.321593096e-06
1.366434494e-06
1.400294118e-06
1.42713683e-06
1.449155527e-06
1.467681237e-06
1.483578e-06
1.497436083e-06
1.509675306e-06
1.520604204e-06
1.53045579e-06
1.539410179e-06
1.547609422e-06
1.555167554e-06
1.56217759e-06
1.568716505e-06
1.574848872e-06
1.580629555e-06
1.58610577e-06
1.591318673e-06
1.596304632e-06
1.601096289e-06
1.605723472e-06
1.610214056e-06
1.614594832e-06
1.618892486e-06
1.623134806e-06
1.627352197e-06
1.631582483e-06
1.635804356e-06
1.641408529e-06
1.630722521e-06
1.646201038e-06
4.167549177e-06
1.858885483e-05
0.0002234701875
0.0003147862747
9.116168935e-07
1.152170924e-06
1.257472594e-06
1.321518226e-06
1.366346629e-06
1.40019485e-06
1.427027257e-06
1.449036436e-06
1.467553214e-06
1.483441498e-06
1.497291467e-06
1.509522881e-06
1.520444229e-06
1.530288495e-06
1.539235762e-06
1.547428048e-06
1.554979347e-06
1.561982611e-06
1.568514727e-06
1.574640139e-06
1.580413534e-06
1.58588188e-06
1.591086001e-06
1.596061835e-06
1.60084146e-06
1.605453991e-06
1.609926403e-06
1.614284358e-06
1.618553115e-06
1.622758623e-06
1.626928846e-06
1.631097443e-06
1.635264005e-06
1.640006208e-06
1.64410277e-06
1.578230714e-06
1.303391684e-06
2.524190584e-05
0.0002595774661
0.0003453009658
9.115895457e-07
1.152146385e-06
1.257417525e-06
1.321447543e-06
1.366262755e-06
1.400099381e-06
1.4269213e-06
1.448920784e-06
1.46742846e-06
1.483308104e-06
1.497149809e-06
1.509373277e-06
1.520286959e-06
1.530123809e-06
1.539063889e-06
1.547249191e-06
1.554793675e-06
1.561790241e-06
1.5683157e-06
1.574434379e-06
1.580200802e-06
1.585661708e-06
1.590857614e-06
1.595824048e-06
1.600592563e-06
1.605191602e-06
1.609647296e-06
1.613984246e-06
1.618226372e-06
1.622397891e-06
1.626524449e-06
1.630636149e-06
1.634733771e-06
1.639290156e-06
1.643811549e-06
1.582336232e-06
1.15451254e-06
3.287198313e-05
0.0002971395751
0.0003781501387
9.115654509e-07
1.152127221e-06
1.257367193e-06
1.321381494e-06
1.366183382e-06
1.400008278e-06
1.426819573e-06
1.448809229e-06
1.467307674e-06
1.483178555e-06
1.497011881e-06
1.5092273e-06
1.520133229e-06
1.529962601e-06
1.53889546e-06
1.547073783e-06
1.554611504e-06
1.561601484e-06
1.568120467e-06
1.57423268e-06
1.579992499e-06
1.58544645e-06
1.590634762e-06
1.59559258e-06
1.600350956e-06
1.604937697e-06
1.609378134e-06
1.613695867e-06
1.617913552e-06
1.622053785e-06
1.626140066e-06
1.630199168e-06
1.63423723e-06
1.638447773e-06
1.648604395e-06
1.496274637e-06
1.715616197e-06
4.006062455e-05
0.000336127243
0.0004132482639
9.115448179e-07
1.152113716e-06
1.257321988e-06
1.321320546e-06
1.366109042e-06
1.399922128e-06
1.426722716e-06
1.448702457e-06
1.467191585e-06
1.483053619e-06
1.496878489e-06
1.509085792e-06
1.519983915e-06
1.529805777e-06
1.538731414e-06
1.546902794e-06
1.554433838e-06
1.561417378e-06
1.567930107e-06
1.574036164e-06
1.579789792e-06
1.585237325e-06
1.590418717e-06
1.59536875e-06
1.600118001e-06
1.604693667e-06
1.609120314e-06
1.613420587e-06
1.617615954e-06
1.621727508e-06
1.625776805e-06
1.629787626e-06
1.633774339e-06
1.637545886e-06
1.656535402e-06
1.34969906e-06
2.975986591e-06
5.014306128e-05
0.0003762988418
0.0004505215119
9.115278668e-07
1.152106162e-06
1.257282314e-06
1.321265181e-06
1.366040285e-06
1.399841542e-06
1.426631393e-06
1.448601183e-06
1.467080952e-06
1.482934098e-06
1.496750472e-06
1.508949626e-06
1.519839925e-06
1.529654279e-06
1.538572725e-06
1.546737232e-06
1.554261719e-06
1.561239003e-06
1.567745738e-06
1.573845993e-06
1.579593891e-06
1.585035589e-06
1.590210787e-06
1.595153917e-06
1.599895098e-06
1.604460939e-06
1.608875264e-06
1.613159808e-06
1.617334915e-06
1.621420298e-06
1.625435796e-06
1.629402751e-06
1.633339497e-06
1.636838977e-06
1.66094167e-06
1.257307331e-06
4.022953987e-06
6.159695763e-05
0.0004177337597
0.0004899013716
9.115148277e-07
1.15210486e-06
1.257248587e-06
1.321215899e-06
1.365977679e-06
1.39976715e-06
1.426546289e-06
1.448506142e-06
1.466976559e-06
1.482820819e-06
1.496628699e-06
1.508819713e-06
1.519702207e-06
1.529509091e-06
1.538420411e-06
1.54657815e-06
1.554096236e-06
1.561067484e-06
1.567568527e-06
1.573663376e-06
1.579406055e-06
1.584842554e-06
1.590012336e-06
1.594949497e-06
1.599683709e-06
1.604241003e-06
1.608644485e-06
1.612915005e-06
1.617071844e-06
1.62113345e-06
1.625118176e-06
1.629045489e-06
1.632934691e-06
1.636290322e-06
1.662969118e-06
1.196475282e-06
5.009015437e-06
6.712421426e-05
0.0004605720203
0.0005312137554
9.115059405e-07
1.152110117e-06
1.257221234e-06
1.32117321e-06
1.365921806e-06
1.399699599e-06
1.426468112e-06
1.448418096e-06
1.466879219e-06
1.482714642e-06
1.496514075e-06
1.508696998e-06
1.519571745e-06
1.529371235e-06
1.538275532e-06
1.546426645e-06
1.553938525e-06
1.560904001e-06
1.567399697e-06
1.573489587e-06
1.579227608e-06
1.584659603e-06
1.589824808e-06
1.594756993e-06
1.599485388e-06
1.604035458e-06
1.608429592e-06
1.612687773e-06
1.616828262e-06
1.620868341e-06
1.624825087e-06
1.628716582e-06
1.632562109e-06
1.635828544e-06
1.664639269e-06
1.130786075e-06
5.669269354e-06
7.621138357e-06
0.0005055797535
0.0005742779176
9.115014545e-07
1.152122242e-06
1.25720069e-06
1.321137635e-06
1.365873264e-06
1.399639552e-06
1.426397586e-06
1.448337828e-06
1.466789767e-06
1.482616453e-06
1.496407534e-06
1.508582459e-06
1.519449563e-06
1.529241777e-06
1.538139196e-06
1.546283869e-06
1.553789782e-06
1.560749794e-06
1.567240539e-06
1.573325973e-06
1.579059959e-06
1.584488211e-06
1.589649746e-06
1.594578019e-06
1.59930182e-06
1.603846042e-06
1.608232353e-06
1.612479872e-06
1.616605858e-06
1.620626489e-06
1.624557723e-06
1.628416622e-06
1.632221918e-06
1.635465608e-06
1.664633746e-06
1.092558001e-06
6.07312815e-06
1.311958925e-05
0.0005518543607
0.0006190010267
9.115016257e-07
1.152141545e-06
1.257187396e-06
1.321109704e-06
1.365832658e-06
1.399587686e-06
1.426335452e-06
1.448266139e-06
1.466709061e-06
1.482527165e-06
1.49631004e-06
1.508477114e-06
1.519336723e-06
1.529121827e-06
1.538012563e-06
1.546151027e-06
1.553651262e-06
1.560606173e-06
1.567092425e-06
1.573173967e-06
1.578904614e-06
1.584329962e-06
1.589488823e-06
1.594414337e-06
1.599134854e-06
1.603674679e-06
1.608054746e-06
1.612293287e-06
1.616406549e-06
1.620409627e-06
1.624317439e-06
1.628146253e-06
1.631912873e-06
1.635218345e-06
1.662306744e-06
1.093351787e-06
6.184516673e-06
2.151086961e-05
0.0005993691171
0.0006653072877
9.115067176e-07
1.152168331e-06
1.257181797e-06
1.321089951e-06
1.3658006e-06
1.399544686e-06
1.426282463e-06
1.448203845e-06
1.46663798e-06
1.482447715e-06
1.496222588e-06
1.50838201e-06
1.51923433e-06
1.529012545e-06
1.537896844e-06
1.546029389e-06
1.553524295e-06
1.560474532e-06
1.566956814e-06
1.573035108e-06
1.578763199e-06
1.58418658e-06
1.589343869e-06
1.594267892e-06
1.598986547e-06
1.603523537e-06
1.607899021e-06
1.612130302e-06
1.616232572e-06
1.620219812e-06
1.62410589e-06
1.627906292e-06
1.631637169e-06
1.635013042e-06
1.658725195e-06
1.109814172e-06
6.781333803e-06
3.030962169e-05
0.0006479207264
0.0007131041245
9.115170011e-07
1.152202899e-06
1.257184337e-06
1.32107891e-06
1.365777707e-06
1.399511243e-06
1.426239379e-06
1.448151775e-06
1.466577418e-06
1.482379062e-06
1.496146199e-06
1.508298231e-06
1.51914353e-06
1.528915137e-06
1.53779331e-06
1.545920293e-06
1.553410288e-06
1.560356354e-06
1.566835275e-06
1.57291106e-06
1.578637484e-06
1.584059956e-06
1.589216909e-06
1.594140854e-06
1.598859227e-06
1.603395087e-06
1.607767771e-06
1.611993581e-06
1.616086577e-06
1.620059534e-06
1.623925188e-06
1.627698027e-06
1.63139715e-06
1.634875548e-06
1.649144389e-06
1.253754165e-06
8.418352441e-06
3.975503938e-05
0.0006974170278
0.0007623469124
9.115327536e-07
1.15224553e-06
1.257195454e-06
1.321077109e-06
1.36576459e-06
1.399488045e-06
1.426206966e-06
1.448110766e-06
1.466528282e-06
1.482322181e-06
1.496081918e-06
1.508226891e-06
1.519065506e-06
1.52883086e-06
1.537703293e-06
1.545825147e-06
1.553310735e-06
1.560253223e-06
1.566729495e-06
1.572803626e-06
1.578529405e-06
1.583952179e-06
1.589110203e-06
1.594035675e-06
1.598755543e-06
1.603292179e-06
1.607664022e-06
1.611886275e-06
1.615971744e-06
1.619931858e-06
1.623778054e-06
1.627523707e-06
1.631193097e-06
1.634474497e-06
1.649751711e-06
1.307891348e-06
9.777216944e-06
5.384363704e-05
0.0007481385996
0.0008130860371
9.115542621e-07
1.152296482e-06
1.257215577e-06
1.32108507e-06
1.365761854e-06
1.399475777e-06
1.426185985e-06
1.448081656e-06
1.466491485e-06
1.482278062e-06
1.49603081e-06
1.508169135e-06
1.519001482e-06
1.528761021e-06
1.537628186e-06
1.54574544e-06
1.553227223e-06
1.56016684e-06
1.5666413e-06
1.572714774e-06
1.578441096e-06
1.583865572e-06
1.589026294e-06
1.593955146e-06
1.598678553e-06
1.603218142e-06
1.607591354e-06
1.61181216e-06
1.615891947e-06
1.619840591e-06
1.623668017e-06
1.627386259e-06
1.631025088e-06
1.634021014e-06
1.654349272e-06
1.359974249e-06
1.1122539e-05
6.586790485e-05
0.0007995482505
0.0008654386157
9.115818289e-07
1.152355981e-06
1.257245123e-06
1.321103297e-06
1.365770087e-06
1.399475112e-06
1.426177187e-06
1.448065275e-06
1.466467939e-06
1.4822477e-06
1.495993955e-06
1.508126129e-06
1.518952718e-06
1.528706974e-06
1.537569448e-06
1.545682737e-06
1.55316144e-06
1.560099026e-06
1.566572663e-06
1.572646656e-06
1.578374916e-06
1.583802733e-06
1.588968062e-06
1.593902459e-06
1.598631797e-06
1.603176873e-06
1.607554012e-06
1.611775781e-06
1.615851927e-06
1.61979049e-06
1.623599622e-06
1.627289804e-06
1.630891961e-06
1.633722163e-06
1.658360997e-06
1.324025495e-06
6.723341328e-07
8.190279794e-05
0.0008516171495
0.0009194375345
9.116157801e-07
1.152424203e-06
1.257284488e-06
1.321132269e-06
1.365789856e-06
1.399486696e-06
1.426181305e-06
1.44806244e-06
1.466458548e-06
1.482232086e-06
1.495972439e-06
1.508099057e-06
1.5189205e-06
1.528670119e-06
1.537528595e-06
1.545638686e-06
1.553115177e-06
1.560051734e-06
1.566525727e-06
1.572601634e-06
1.578333476e-06
1.583766561e-06
1.588938718e-06
1.593881181e-06
1.598619236e-06
1.603172777e-06
1.607556864e-06
1.611782456e-06
1.615857358e-06
1.619787399e-06
1.623578603e-06
1.627239572e-06
1.630801149e-06
1.633491298e-06
1.661923739e-06
1.21706375e-06
2.018562346e-06
9.953641069e-05
0.000904129636
0.0009749986379
9.116564806e-07
1.152501253e-06
1.257334041e-06
1.321172435e-06
1.365821693e-06
1.39951115e-06
1.426199041e-06
1.448073944e-06
1.466464194e-06
1.482232201e-06
1.495967345e-06
1.508089112e-06
1.518906139e-06
1.528651892e-06
1.537507202e-06
1.545615017e-06
1.553090337e-06
1.560027064e-06
1.566502807e-06
1.572582265e-06
1.578319612e-06
1.583760198e-06
1.588941745e-06
1.593895169e-06
1.598645153e-06
1.603210616e-06
1.607605217e-06
1.611838058e-06
1.615914645e-06
1.619838132e-06
1.623611873e-06
1.62724214e-06
1.630757945e-06
1.633354726e-06
1.6642977e-06
1.122467779e-06
3.479105168e-06
0.0001185351211
0.0009569704481
0.001032091994
9.117043605e-07
1.15258715e-06
1.257394119e-06
1.321224204e-06
1.365866091e-06
1.399549048e-06
1.426231061e-06
1.44810054e-06
1.466485731e-06
1.482249002e-06
1.495979741e-06
1.508097485e-06
1.518910959e-06
1.528653761e-06
1.537506898e-06
1.545613536e-06
1.553088929e-06
1.560027248e-06
1.566506366e-06
1.572591246e-06
1.578336312e-06
1.583787051e-06
1.588981115e-06
1.593949066e-06
1.598714883e-06
1.603296366e-06
1.607705584e-06
1.611949555e-06
1.616031168e-06
1.619950478e-06
1.623707443e-06
1.627305284e-06
1.630769027e-06
1.633331945e-06
1.665083018e-06
1.045845401e-06
5.283283944e-06
0.0001374054588
0.00100988034
0.001090909125
9.117599764e-07
1.152681797e-06
1.257465025e-06
1.321287935e-06
1.365923488e-06
1.399600913e-06
1.426277974e-06
1.448142936e-06
1.466523966e-06
1.482283408e-06
1.49601067e-06
1.508125352e-06
1.518936284e-06
1.528677216e-06
1.537529349e-06
1.545636082e-06
1.553112961e-06
1.560054509e-06
1.566538975e-06
1.572631668e-06
1.578387286e-06
1.583851502e-06
1.589061958e-06
1.594048891e-06
1.598835513e-06
1.603438303e-06
1.607867364e-06
1.612127113e-06
1.61621733e-06
1.62013462e-06
1.623875155e-06
1.627438322e-06
1.630844465e-06
1.633364982e-06
1.665649716e-06
9.776632544e-07
7.725010925e-06
0.0001634135983
0.001062425898
0.00115180834
9.11824125e-07
1.152784837e-06
1.257546998e-06
1.321363912e-06
1.365994247e-06
1.399667193e-06
1.426340315e-06
1.448201759e-06
1.466579629e-06
1.482336258e-06
1.496061084e-06
1.508173786e-06
1.518983319e-06
1.528723608e-06
1.537576089e-06
1.545684458e-06
1.553164602e-06
1.56011144e-06
1.566603667e-06
1.572707043e-06
1.578476639e-06
1.583958355e-06
1.589189866e-06
1.594201117e-06
1.599014558e-06
1.60364524e-06
1.608101015e-06
1.612383113e-06
1.616487221e-06
1.62040527e-06
1.624128943e-06
1.627653725e-06
1.630994618e-06
1.633476614e-06
1.665647786e-06
9.293451031e-07
8.923102235e-06
2.082148801e-05
0.001117509366
0.001215031384
9.118989182e-07
1.152895011e-06
1.257640275e-06
1.321452323e-06
1.366078605e-06
1.399748187e-06
1.426418461e-06
1.448277473e-06
1.466653285e-06
1.482408236e-06
1.496131815e-06
1.508243795e-06
1.519053281e-06
1.528794403e-06
1.537648866e-06
1.545760716e-06
1.553246258e-06
1.560200874e-06
1.566703747e-06
1.572821154e-06
1.578608676e-06
1.584112609e-06
1.589370773e-06
1.59441287e-06
1.599260525e-06
1.603927191e-06
1.608418147e-06
1.612730908e-06
1.616856305e-06
1.620780237e-06
1.624487814e-06
1.627969186e-06
1.63123437e-06
1.633678158e-06
1.66498852e-06
8.923212638e-07
9.760647798e-06
2.834917277e-05
0.001173462062
0.001280855587
9.11991138e-07
1.153007959e-06
1.257745064e-06
1.321553218e-06
1.366176713e-06
1.399844152e-06
1.426512773e-06
1.44837055e-06
1.46674553e-06
1.482500079e-06
1.496223759e-06
1.508336462e-06
1.519147466e-06
1.528891145e-06
1.537749509e-06
1.545866986e-06
1.553360357e-06
1.560325564e-06
1.56684243e-06
1.572977902e-06
1.578788206e-06
1.584320169e-06
1.589611889e-06
1.594692913e-06
1.599584041e-06
1.604296947e-06
1.608833897e-06
1.61318791e-06
1.61734386e-06
1.621280375e-06
1.624974306e-06
1.628407699e-06
1.631584049e-06
1.633971543e-06
1.664134756e-06
8.575843772e-07
1.075572698e-05
3.902858333e-05
0.001229445641
0.001349270054
9.120913435e-07
1.153131328e-06
1.257861428e-06
1.321666948e-06
1.366288897e-06
1.399955431e-06
1.426623644e-06
1.448481462e-06
1.466856932e-06
1.482612469e-06
1.496337727e-06
1.508452741e-06
1.519266997e-06
1.529015139e-06
1.537879544e-06
1.5460051e-06
1.553509152e-06
1.560488332e-06
1.567023229e-06
1.573181624e-06
1.579020568e-06
1.584587613e-06
1.589921343e-06
1.595051307e-06
1.599997515e-06
1.6047697e-06
1.609366658e-06
1.613776005e-06
1.617975152e-06
1.621933401e-06
1.625617101e-06
1.628997685e-06
1.632069244e-06
1.634377872e-06
1.662991312e-06
8.256233482e-07
1.197361984e-05
5.342072775e-05
0.001285344152
0.001419744483
9.121980255e-07
1.153263662e-06
1.257988782e-06
1.321793218e-06
1.366414999e-06
1.400081951e-06
1.426751081e-06
1.448610298e-06
1.466987682e-06
1.482745718e-06
1.496474183e-06
1.508593288e-06
1.519412761e-06
1.529167574e-06
1.538040526e-06
1.546177045e-06
1.553695143e-06
1.560692244e-06
1.567249884e-06
1.573436907e-06
1.579311495e-06
1.584922222e-06
1.590308406e-06
1.595499787e-06
1.600515702e-06
1.605363859e-06
1.610039085e-06
1.614522554e-06
1.618782357e-06
1.6227758e-06
1.626455115e-06
1.629777324e-06
1.632723328e-06
1.634932236e-06
1.661120243e-06
7.997787696e-07
1.371736007e-05
6.900996535e-05
0.001340736082
0.001491246525
9.123111422e-07
1.153404732e-06
1.258126811e-06
1.321931743e-06
1.366554788e-06
1.400223541e-06
1.426894982e-06
1.448757042e-06
1.467137863e-06
1.482900034e-06
1.496633483e-06
1.508758637e-06
1.519585515e-06
1.529349476e-06
1.538233825e-06
1.546384633e-06
1.553920708e-06
1.560940437e-06
1.567526492e-06
1.573749009e-06
1.579667569e-06
1.585332202e-06
1.590783505e-06
1.596051849e-06
1.601156071e-06
1.606101738e-06
1.61087925e-06
1.615462182e-06
1.619807055e-06
1.623855691e-06
1.627541198e-06
1.630800185e-06
1.633594152e-06
1.635647185e-06
1.658780722e-06
8.024459055e-07
1.535074786e-05
8.532266831e-05
0.001395152835
0.001562417898
9.124304623e-07
1.1535542e-06
1.258275159e-06
1.322082166e-06
1.366707925e-06
1.400379895e-06
1.427055088e-06
1.448921498e-06
1.467307364e-06
1.483075414e-06
1.496815766e-06
1.508949106e-06
1.519785802e-06
1.529561671e-06
1.538460616e-06
1.546629475e-06
1.55418802e-06
1.561235832e-06
1.567857013e-06
1.574123332e-06
1.580096148e-06
1.585827317e-06
1.591359149e-06
1.596723388e-06
1.601939208e-06
1.607010287e-06
1.611922009e-06
1.616638959e-06
1.621103514e-06
1.625237532e-06
1.628948203e-06
1.632142771e-06
1.634753372e-06
1.636574555e-06
1.656463787e-06
8.127951611e-07
1.737190263e-05
0.0001055947655
0.001448540583
0.00163187271
9.125556221e-07
1.153711584e-06
1.258433339e-06
1.322243992e-06
1.366873917e-06
1.400550537e-06
1.427230952e-06
1.449103266e-06
1.467495854e-06
1.483271621e-06
1.497020921e-06
1.509164754e-06
1.5200139e-06
1.529804723e-06
1.538721838e-06
1.546912996e-06
1.554499138e-06
1.5615813e-06
1.568245363e-06
1.574565206e-06
1.580604591e-06
1.5864179e-06
1.592049812e-06
1.597533954e-06
1.602890501e-06
1.608122443e-06
1.613210632e-06
1.618109214e-06
1.622743112e-06
1.627008657e-06
1.630778259e-06
1.633916756e-06
1.636312063e-06
1.637810448e-06
1.6543836e-06
8.127589621e-07
2.07001578e-05
0.0001261368003
0.001500414064
0.00169855036
9.126861581e-07
1.153876279e-06
1.258600722e-06
1.322416565e-06
1.367052097e-06
1.4007348e-06
1.427421921e-06
1.44930172e-06
1.467702754e-06
1.483488151e-06
1.497248552e-06
1.509405332e-06
1.520269765e-06
1.530078864e-06
1.53901809e-06
1.547236297e-06
1.554855836e-06
1.561979531e-06
1.568695483e-06
1.575080259e-06
1.581200764e-06
1.587114877e-06
1.592870883e-06
1.598505559e-06
1.604040966e-06
1.609479937e-06
1.614799959e-06
1.61994531e-06
1.62482037e-06
1.629288733e-06
1.633176798e-06
1.636289218e-06
1.638447376e-06
1.639511772e-06
1.652758395e-06
8.525824656e-07
2.308602084e-05
0.0001472443107
0.001550564654
0.001761990011
9.128215125e-07
1.154047554e-06
1.258776534e-06
1.322599066e-06
1.367241613e-06
1.40093181e-06
1.427627111e-06
1.449515984e-06
1.467927213e-06
1.4837242e-06
1.497497933e-06
1.509670237e-06
1.520552973e-06
1.530383922e-06
1.539349558e-06
1.547600056e-06
1.555259483e-06
1.562432861e-06
1.569211069e-06
1.575674106e-06
1.581892998e-06
1.587930377e-06
1.593839696e-06
1.599662862e-06
1.605426099e-06
1.611133803e-06
1.616760697e-06
1.622241992e-06
1.627461485e-06
1.632243415e-06
1.636353888e-06
1.639515026e-06
1.641449528e-06
1.642013825e-06
1.649481316e-06
1.072426371e-06
2.001781953e-05
0.0001715826425
0.001598676476
0.001822284239
9.129610339e-07
1.154224558e-06
1.258959854e-06
1.322790511e-06
1.367441423e-06
1.401140478e-06
1.4278454e-06
1.449744914e-06
1.468168082e-06
1.483978636e-06
1.49776798e-06
1.50995847e-06
1.520862662e-06
1.53071925e-06
1.539715913e-06
1.548004415e-06
1.555710907e-06
1.562943117e-06
1.569795397e-06
1.576352134e-06
1.582689758e-06
1.588877348e-06
1.594975703e-06
1.601034575e-06
1.607087659e-06
1.6131448e-06
1.619181211e-06
1.62512415e-06
1.630837327e-06
1.636103796e-06
1.640616033e-06
1.643987659e-06
1.645804322e-06
1.645872437e-06
1.645117663e-06
1.632729764e-06
1.4803829e-06
0.0002010967228
0.001644694409
0.001879832844
9.131039779e-07
1.154406317e-06
1.259149614e-06
1.322989744e-06
1.367650295e-06
1.401359504e-06
1.428075425e-06
1.449987092e-06
1.468423901e-06
1.484249977e-06
1.498057211e-06
1.510268586e-06
1.521197473e-06
1.531083647e-06
1.540116216e-06
1.548448851e-06
1.556210233e-06
1.563511412e-06
1.570451083e-06
1.577119232e-06
1.583599365e-06
1.589969277e-06
1.59630013e-06
1.602653441e-06
1.609075314e-06
1.615587025e-06
1.622171236e-06
1.628753483e-06
1.635180342e-06
1.641195114e-06
1.646412151e-06
1.650314258e-06
1.652314136e-06
1.65207375e-06
1.651385144e-06
1.386621587e-06
3.119014751e-05
0.0002348572706
0.001687871784
0.00193535579
9.132495083e-07
1.154591738e-06
1.259344608e-06
1.323195447e-06
1.36786681e-06
1.401587371e-06
1.428315576e-06
1.45024082e-06
1.468692891e-06
1.484536373e-06
1.498363725e-06
1.51059866e-06
1.5215555e-06
1.531475284e-06
1.540548815e-06
1.548932044e-06
1.556756703e-06
1.564137918e-06
1.571179792e-06
1.577979435e-06
1.584629599e-06
1.591219798e-06
1.597835687e-06
1.604556144e-06
1.61144711e-06
1.618550805e-06
1.625868996e-06
1.633339193e-06
1.640804234e-06
1.647977338e-06
1.654402897e-06
1.659429483e-06
1.662278185e-06
1.662460543e-06
1.660606513e-06