/*--------------------------------*- C++ -*----------------------------------*\
| =========                 |                                                 |
| \\      /  F ield         | OpenFOAM: The Open Source CFD Toolbox           |
|  \\    /   O peration     | Version:  v1912                                 |
|   \\  /    A nd           | Website:  www.openfoam.com                      |
|    \\/     M anipulation  |                                                 |
\*---------------------------------------------------------------------------*/
FoamFile
{
    version     2.0;
    format      ascii;
    class       volScalarField;
    location    "0.4";
    object      k.liquid_0;
}
// * * * * * * * * * * * * * * * * * * * * * * * * * * * * * * * * * * * * * //

dimensions      [0 2 -2 0 0 0 0];


internalField   nonuniform List<scalar> 
4800
(
3.419800706e-07
4.123975122e-07
4.417199996e-07
4.596140248e-07
4.726885827e-07
4.833501204e-07
4.927731953e-07
5.016399422e-07
5.104035812e-07
5.194020819e-07
5.289144681e-07
5.39192154e-07
5.50478536e-07
5.630227275e-07
5.770905643e-07
5.929745228e-07
6.110037117e-07
6.31554758e-07
6.550644094e-07
6.820446906e-07
7.131016561e-07
7.489590819e-07
7.904889083e-07
8.387510149e-07
8.95046016e-07
9.609864862e-07
1.038594928e-06
1.130441313e-06
1.239840763e-06
1.371145439e-06
1.530189132e-06
1.724983819e-06
1.96692326e-06
2.272152832e-06
2.66972974e-06
3.189228294e-06
3.846848074e-06
5.691785722e-06
2.409233935e-06
1.944316318e-05
9.588225976e-07
1.21484185e-06
1.327507702e-06
1.396056787e-06
1.444057155e-06
1.480311324e-06
1.509063209e-06
1.532662966e-06
1.552538297e-06
1.569616579e-06
1.584531649e-06
1.597734502e-06
1.609556695e-06
1.620248766e-06
1.630004516e-06
1.638977007e-06
1.647289411e-06
1.655042635e-06
1.6623208e-06
1.669195323e-06
1.675728062e-06
1.681973843e-06
1.687982614e-06
1.693801448e-06
1.69947652e-06
1.705055361e-06
1.710589587e-06
1.716138526e-06
1.721774382e-06
1.727589869e-06
1.733710726e-06
1.740302712e-06
1.747786735e-06
1.754633871e-06
1.778431165e-06
1.716740541e-06
1.964798098e-06
1.459595863e-06
1.967174564e-06
6.347859614e-05
9.09816782e-07
1.150253072e-06
1.255837898e-06
1.320066578e-06
1.365056132e-06
1.399046926e-06
1.426006427e-06
1.448129703e-06
1.46674938e-06
1.482730658e-06
1.496664663e-06
1.508971854e-06
1.519961248e-06
1.529866259e-06
1.538867367e-06
1.547107014e-06
1.554699721e-06
1.561739162e-06
1.568303249e-06
1.574457896e-06
1.580259901e-06
1.585759232e-06
1.59100096e-06
1.596026983e-06
1.600877765e-06
1.605594207e-06
1.610219962e-06
1.614804501e-06
1.619407545e-06
1.624105784e-06
1.629003918e-06
1.634247017e-06
1.640126708e-06
1.646293887e-06
1.659536275e-06
1.63325457e-06
1.869900962e-06
1.612806419e-06
3.52570514e-06
8.974946495e-05
9.129466763e-07
1.154372546e-06
1.2603883e-06
1.324876038e-06
1.370044683e-06
1.40417071e-06
1.431239221e-06
1.453455121e-06
1.47215705e-06
1.488214147e-06
1.502220258e-06
1.514597811e-06
1.525657317e-06
1.535633367e-06
1.544707403e-06
1.553022696e-06
1.560694507e-06
1.567817202e-06
1.574469367e-06
1.580717606e-06
1.586619435e-06
1.592225603e-06
1.597582036e-06
1.602731597e-06
1.607715817e-06
1.612576784e-06
1.617359402e-06
1.622114341e-06
1.626902139e-06
1.631799184e-06
1.636907023e-06
1.642362477e-06
1.648408112e-06
1.65502743e-06
1.663613831e-06
1.679492438e-06
1.72022462e-06
5.486258832e-07
3.62761449e-06
0.0001107167248
9.126773601e-07
1.154014456e-06
1.25998185e-06
1.324440465e-06
1.369587671e-06
1.403696484e-06
1.430750303e-06
1.452953066e-06
1.471642817e-06
1.487688301e-06
1.501683092e-06
1.514049415e-06
1.525097625e-06
1.535062181e-06
1.544124413e-06
1.552427479e-06
1.560086525e-06
1.567195787e-06
1.573833695e-06
1.580066656e-06
1.585951928e-06
1.591539916e-06
1.596876073e-06
1.602002596e-06
1.606960062e-06
1.611789157e-06
1.616532675e-06
1.621238016e-06
1.625960511e-06
1.630768012e-06
1.635747347e-06
1.641014205e-06
1.646711418e-06
1.653256423e-06
1.658784091e-06
1.680085797e-06
1.633918293e-06
1.710595002e-06
8.842720935e-07
0.0001297131315
9.126398165e-07
1.153966201e-06
1.259918048e-06
1.324367737e-06
1.369507681e-06
1.40361023e-06
1.430658441e-06
1.452856048e-06
1.471540965e-06
1.487581854e-06
1.501572229e-06
1.513934275e-06
1.524978313e-06
1.534938775e-06
1.543996964e-06
1.552296006e-06
1.559951008e-06
1.567056148e-06
1.573689776e-06
1.579918179e-06
1.585798448e-06
1.591380739e-06
1.596710141e-06
1.601828317e-06
1.606775048e-06
1.611589819e-06
1.616313588e-06
1.620990897e-06
1.625672552e-06
1.630419114e-06
1.635305422e-06
1.640429124e-06
1.645872507e-06
1.652367852e-06
1.65482962e-06
1.677433243e-06
1.765308626e-06
3.691552782e-06
2.285751001e-05
0.0001487315674
9.125883615e-07
1.153899946e-06
1.259832267e-06
1.324270769e-06
1.369401691e-06
1.403496505e-06
1.430537815e-06
1.452729084e-06
1.471408055e-06
1.487443276e-06
1.501428183e-06
1.513784901e-06
1.524823705e-06
1.534778988e-06
1.543832009e-06
1.552125852e-06
1.559775564e-06
1.566875248e-06
1.573503148e-06
1.579725405e-06
1.585598899e-06
1.591173488e-06
1.596493834e-06
1.601600988e-06
1.606533839e-06
1.611330563e-06
1.616030179e-06
1.620674323e-06
1.625309397e-06
1.629989239e-06
1.634778521e-06
1.639757345e-06
1.645014943e-06
1.650921876e-06
1.654007793e-06
1.691531569e-06
1.537396156e-06
1.000041828e-06
1.915081354e-05
0.0001658605411
9.12539792e-07
1.153838398e-06
1.259749909e-06
1.324176635e-06
1.369297988e-06
1.403384563e-06
1.430418507e-06
1.452603007e-06
1.471275632e-06
1.487304813e-06
1.501283903e-06
1.513634966e-06
1.52466823e-06
1.534618043e-06
1.543665622e-06
1.551954002e-06
1.559598166e-06
1.566692134e-06
1.573314037e-06
1.579529853e-06
1.585396239e-06
1.590962734e-06
1.596273552e-06
1.601369105e-06
1.606287374e-06
1.611065237e-06
1.615739836e-06
1.620350096e-06
1.624938487e-06
1.629553164e-06
1.634250757e-06
1.639098107e-06
1.644206228e-06
1.649403175e-06
1.656282976e-06
1.674969279e-06
1.432507092e-06
3.074478038e-06
3.013939845e-05
0.000184835223
9.124930592e-07
1.153780151e-06
1.259669441e-06
1.324083723e-06
1.369194908e-06
1.403272698e-06
1.430298776e-06
1.452476044e-06
1.471141889e-06
1.487164621e-06
1.501137507e-06
1.513482549e-06
1.524509923e-06
1.534453932e-06
1.543495748e-06
1.551778351e-06
1.55941666e-06
1.566504607e-06
1.573120199e-06
1.579329248e-06
1.585188172e-06
1.590746184e-06
1.596047038e-06
1.601130506e-06
1.606033673e-06
1.610792167e-06
1.615441379e-06
1.620017789e-06
1.624560473e-06
1.629112936e-06
1.633725477e-06
1.638459046e-06
1.643374443e-06
1.64886337e-06
1.650789867e-06
1.695486132e-06
1.464588267e-06
8.821885834e-07
2.879001462e-05
0.0002028214448
9.12448344e-07
1.15372548e-06
1.259591214e-06
1.323992442e-06
1.369092902e-06
1.403161402e-06
1.430179148e-06
1.452348751e-06
1.471007411e-06
1.487023313e-06
1.500989637e-06
1.513328319e-06
1.524349482e-06
1.534287384e-06
1.54332315e-06
1.551599706e-06
1.559231903e-06
1.566313581e-06
1.572922624e-06
1.57912467e-06
1.5849759e-06
1.590525195e-06
1.595815854e-06
1.600887023e-06
1.605774929e-06
1.610514027e-06
1.615138114e-06
1.619681513e-06
1.624180424e-06
1.628674586e-06
1.633209475e-06
1.637840724e-06
1.642610591e-06
1.648153606e-06
1.645959186e-06
1.745411027e-06
8.981158191e-07
3.79423438e-06
6.547064694e-05
0.0002230800561
9.124057547e-07
1.153674558e-06
1.259515468e-06
1.323903082e-06
1.368992304e-06
1.403051042e-06
1.430060023e-06
1.452221557e-06
1.470872654e-06
1.486881371e-06
1.500840798e-06
1.513172806e-06
1.524187464e-06
1.534118984e-06
1.543148444e-06
1.551418717e-06
1.559044586e-06
1.566119799e-06
1.572722118e-06
1.578917007e-06
1.584760413e-06
1.590300889e-06
1.595581295e-06
1.600640175e-06
1.605512948e-06
1.610232988e-06
1.614832656e-06
1.619344391e-06
1.623801958e-06
1.628242006e-06
1.632706166e-06
1.637246322e-06
1.641880619e-06
1.647597709e-06
1.640549136e-06
1.786290774e-06
7.167529304e-07
2.029215597e-06
9.337184376e-05
0.000245014684
9.123654169e-07
1.153627578e-06
1.259442475e-06
1.323815968e-06
1.368893482e-06
1.402942028e-06
1.429941844e-06
1.452094937e-06
1.470738123e-06
1.486739328e-06
1.500691551e-06
1.513016596e-06
1.524024483e-06
1.533949374e-06
1.542972304e-06
1.551236094e-06
1.558855461e-06
1.565924067e-06
1.572519548e-06
1.578707206e-06
1.584542754e-06
1.590074435e-06
1.595344683e-06
1.600391475e-06
1.605249479e-06
1.609951078e-06
1.614527344e-06
1.619009069e-06
1.623427923e-06
1.627817947e-06
1.632217536e-06
1.636675402e-06
1.641185213e-06
1.647142672e-06
1.63382062e-06
1.851432962e-06
1.724696691e-07
6.154689016e-06
0.0001238318807
0.0002686779964
9.123274677e-07
1.153584749e-06
1.259372521e-06
1.323731446e-06
1.368796832e-06
1.402834796e-06
1.429825087e-06
1.451969401e-06
1.470604358e-06
1.486597753e-06
1.500542493e-06
1.512860317e-06
1.523861191e-06
1.533779237e-06
1.542795446e-06
1.55105259e-06
1.558665324e-06
1.565727227e-06
1.572315819e-06
1.578496242e-06
1.58432399e-06
1.589847007e-06
1.595107325e-06
1.600142391e-06
1.604986173e-06
1.609670151e-06
1.614224242e-06
1.618677768e-06
1.623060565e-06
1.627404382e-06
1.631744749e-06
1.636126829e-06
1.640534008e-06
1.646483554e-06
1.632429437e-06
1.768295794e-06
2.702448214e-06
9.265450581e-06
0.0001551975629
0.0002942287624
9.122920563e-07
1.153546292e-06
1.259305912e-06
1.323649884e-06
1.368702772e-06
1.402729811e-06
1.429710254e-06
1.451845488e-06
1.470471933e-06
1.486457251e-06
1.50039426e-06
1.512704631e-06
1.523698283e-06
1.533609298e-06
1.542618627e-06
1.550868997e-06
1.558475007e-06
1.565530159e-06
1.572111866e-06
1.578285118e-06
1.584105202e-06
1.589619782e-06
1.594870511e-06
1.599894339e-06
1.604724591e-06
1.609391914e-06
1.613925178e-06
1.618352383e-06
1.622701711e-06
1.627002831e-06
1.631288602e-06
1.635600579e-06
1.639915609e-06
1.645767431e-06
1.632850148e-06
1.715161578e-06
2.740079697e-06
1.28972205e-05
0.0001880878797
0.0003218998906
9.12259344e-07
1.153512444e-06
1.259242973e-06
1.323571672e-06
1.368611747e-06
1.402627563e-06
1.429597881e-06
1.451723771e-06
1.470341455e-06
1.486318464e-06
1.500247522e-06
1.51255024e-06
1.523536491e-06
1.533440318e-06
1.542442638e-06
1.550686142e-06
1.558285378e-06
1.565333776e-06
1.571908653e-06
1.578074858e-06
1.583887487e-06
1.589393936e-06
1.594635511e-06
1.599648694e-06
1.604466211e-06
1.609117946e-06
1.613631803e-06
1.618034574e-06
1.622352921e-06
1.626614577e-06
1.630849857e-06
1.635096586e-06
1.639330848e-06
1.644974083e-06
1.634371689e-06
1.643756193e-06
4.120256092e-06
1.780138966e-05
0.0002226064053
0.0003518846461
9.122295043e-07
1.153483452e-06
1.259184046e-06
1.32349722e-06
1.368524224e-06
1.402528571e-06
1.429488528e-06
1.451604853e-06
1.470213565e-06
1.486182064e-06
1.500102987e-06
1.512397883e-06
1.523376582e-06
1.533273095e-06
1.542268312e-06
1.55050489e-06
1.558097336e-06
1.565139019e-06
1.571707169e-06
1.577866506e-06
1.583671949e-06
1.589170648e-06
1.594403579e-06
1.599406792e-06
1.604212452e-06
1.608849732e-06
1.613345641e-06
1.617725848e-06
1.622015597e-06
1.6262408e-06
1.630429354e-06
1.63461491e-06
1.638796063e-06
1.643549639e-06
1.647844621e-06
1.582692949e-06
1.247923069e-06
2.430969373e-05
0.0002586038055
0.0003842925269
9.122027233e-07
1.153459579e-06
1.259129491e-06
1.32342696e-06
1.368440694e-06
1.402433378e-06
1.429382788e-06
1.451489367e-06
1.470088935e-06
1.486048761e-06
1.499961396e-06
1.512248331e-06
1.52321936e-06
1.533108465e-06
1.542096514e-06
1.55032614e-06
1.557911816e-06
1.564946862e-06
1.57150843e-06
1.577661129e-06
1.583459711e-06
1.588951101e-06
1.594175964e-06
1.599169948e-06
1.603964691e-06
1.608588696e-06
1.613068133e-06
1.617427617e-06
1.621691061e-06
1.625882659e-06
1.630028016e-06
1.634157246e-06
1.638270348e-06
1.642838917e-06
1.647537584e-06
1.586963239e-06
1.089935759e-06
3.178174858e-05
0.000296027244
0.0004191789251
9.12179199e-07
1.1534411e-06
1.259079683e-06
1.323361341e-06
1.36836167e-06
1.402342552e-06
1.429281275e-06
1.451377973e-06
1.469968266e-06
1.485919294e-06
1.499823524e-06
1.512102395e-06
1.523065665e-06
1.532947298e-06
1.541928146e-06
1.550150825e-06
1.557729787e-06
1.564758311e-06
1.571313485e-06
1.577459818e-06
1.583251914e-06
1.588736489e-06
1.593953921e-06
1.598939473e-06
1.603724286e-06
1.608336231e-06
1.612800679e-06
1.617141249e-06
1.6213806e-06
1.625541318e-06
1.629646881e-06
1.633724084e-06
1.637778883e-06
1.641990038e-06
1.652539159e-06
1.499328581e-06
1.638090064e-06
3.881312419e-05
0.0003348440056
0.0004565200094
9.121591409e-07
1.153428298e-06
1.259035014e-06
1.323300833e-06
1.368287686e-06
1.402256683e-06
1.429184635e-06
1.451271362e-06
1.469852291e-06
1.485794435e-06
1.499690181e-06
1.511960918e-06
1.522916376e-06
1.532790505e-06
1.541764149e-06
1.54997992e-06
1.557552254e-06
1.564574406e-06
1.571123412e-06
1.577263696e-06
1.58304973e-06
1.588528037e-06
1.593738723e-06
1.59871669e-06
1.603492605e-06
1.608093731e-06
1.612544676e-06
1.616868112e-06
1.621085513e-06
1.625217974e-06
1.629287043e-06
1.633316526e-06
1.63732136e-06
1.6410767e-06
1.660772748e-06
1.350257651e-06
2.873839143e-06
4.873871367e-05
0.0003748468075
0.000496290181
9.121427703e-07
1.153421469e-06
1.258995891e-06
1.323245921e-06
1.368219294e-06
1.402176386e-06
1.429093533e-06
1.451170251e-06
1.469741773e-06
1.485674988e-06
1.499562208e-06
1.511824778e-06
1.522772404e-06
1.532639031e-06
1.541605503e-06
1.549814436e-06
1.557380265e-06
1.564396232e-06
1.570939335e-06
1.577073929e-06
1.58285437e-06
1.588327004e-06
1.593531683e-06
1.598502963e-06
1.603271052e-06
1.607862627e-06
1.612301559e-06
1.61660961e-06
1.620807138e-06
1.624913863e-06
1.628949627e-06
1.632935796e-06
1.63689167e-06
1.640366207e-06
1.665355858e-06
1.255973991e-06
3.892442355e-06
6.00319746e-05
0.0004161113485
0.0005385041737
9.121303185e-07
1.153420916e-06
1.258962732e-06
1.323197106e-06
1.368157066e-06
1.402102293e-06
1.429008659e-06
1.451075381e-06
1.469637499e-06
1.485561787e-06
1.499440482e-06
1.511694889e-06
1.522634702e-06
1.532493862e-06
1.541453228e-06
1.549655429e-06
1.557214911e-06
1.564224917e-06
1.570762424e-06
1.576891733e-06
1.582667099e-06
1.588134707e-06
1.593334172e-06
1.598299714e-06
1.603061095e-06
1.607644419e-06
1.612072836e-06
1.616367228e-06
1.620546891e-06
1.624630284e-06
1.62863577e-06
1.632582836e-06
1.636491899e-06
1.639818501e-06
1.667507636e-06
1.193121231e-06
4.87406913e-06
7.067494879e-05
0.0004585735346
0.000583065149
9.121220268e-07
1.153426948e-06
1.258935967e-06
1.323154903e-06
1.36810159e-06
1.402035057e-06
1.428930727e-06
1.450987518e-06
1.469540288e-06
1.485455695e-06
1.49932591e-06
1.511572203e-06
1.522504259e-06
1.532356029e-06
1.541308392e-06
1.549504003e-06
1.557057336e-06
1.564061646e-06
1.570593908e-06
1.576718386e-06
1.582489249e-06
1.587952537e-06
1.59314764e-06
1.598108452e-06
1.602864299e-06
1.607440712e-06
1.611860131e-06
1.616142569e-06
1.620306305e-06
1.624368629e-06
1.628346627e-06
1.632258398e-06
1.636124384e-06
1.639358411e-06
1.669310951e-06
1.126035904e-06
5.659356837e-06
3.181446287e-06
0.0005030248076
0.0006297682526
9.121181459e-07
1.153439876e-06
1.258916034e-06
1.323119838e-06
1.368053466e-06
1.401975347e-06
1.428860464e-06
1.450907449e-06
1.469450981e-06
1.485357606e-06
1.499219433e-06
1.511457706e-06
1.522382106e-06
1.532226603e-06
1.541172107e-06
1.549361315e-06
1.55690874e-06
1.563907668e-06
1.570435087e-06
1.576555241e-06
1.582322236e-06
1.587781977e-06
1.592973641e-06
1.597930806e-06
1.602682359e-06
1.60725326e-06
1.611665229e-06
1.615937412e-06
1.620087085e-06
1.624130433e-06
1.628083415e-06
1.631963098e-06
1.635789285e-06
1.639000969e-06
1.669371684e-06
1.087277427e-06
6.044432465e-06
9.579596032e-06
0.0005490601693
0.0006785246282
9.121189337e-07
1.153460015e-06
1.25890338e-06
1.323092445e-06
1.368013305e-06
1.401923844e-06
1.428798619e-06
1.450835984e-06
1.469370443e-06
1.485268439e-06
1.499122024e-06
1.511352419e-06
1.522269313e-06
1.532106703e-06
1.541045542e-06
1.549228581e-06
1.556770388e-06
1.563764301e-06
1.570287338e-06
1.576403744e-06
1.582167575e-06
1.587624622e-06
1.592813859e-06
1.597768549e-06
1.602517139e-06
1.607084005e-06
1.611490126e-06
1.615753764e-06
1.619891176e-06
1.62391746e-06
1.627847523e-06
1.631697625e-06
1.635485392e-06
1.63876378e-06
1.667035049e-06
1.087998467e-06
6.13678802e-06
1.818851692e-05
0.0005963473011
0.0007293115982
9.121246557e-07
1.153487673e-06
1.258898451e-06
1.323073261e-06
1.367981725e-06
1.401881238e-06
1.42874595e-06
1.450773944e-06
1.469299559e-06
1.485189139e-06
1.499034684e-06
1.511257401e-06
1.522166993e-06
1.531997495e-06
1.540929918e-06
1.549107078e-06
1.556643619e-06
1.563632947e-06
1.570152134e-06
1.576265445e-06
1.582026906e-06
1.587482211e-06
1.59267014e-06
1.597623643e-06
1.602370718e-06
1.606935135e-06
1.611337098e-06
1.615593936e-06
1.619720847e-06
1.623731804e-06
1.627640654e-06
1.63146285e-06
1.635215126e-06
1.638571547e-06
1.663378751e-06
1.103977329e-06
6.719852517e-06
2.695096559e-05
0.0006446665568
0.0007820555322
9.121355845e-07
1.153523151e-06
1.258901696e-06
1.323062826e-06
1.367959347e-06
1.401848227e-06
1.428703226e-06
1.450722168e-06
1.469239234e-06
1.485120674e-06
1.498958444e-06
1.511173744e-06
1.522076301e-06
1.531900198e-06
1.540826515e-06
1.548998155e-06
1.556529852e-06
1.563515103e-06
1.570031056e-06
1.576142019e-06
1.581902013e-06
1.587356651e-06
1.592544527e-06
1.597498282e-06
1.602245447e-06
1.606809149e-06
1.611208768e-06
1.615460628e-06
1.619578787e-06
1.623576005e-06
1.627464977e-06
1.631260133e-06
1.634980858e-06
1.638457526e-06
1.653547004e-06
1.244059718e-06
8.333629552e-06
3.631550741e-05
0.0006939335983
0.0008367216684
9.121519999e-07
1.153566734e-06
1.258913558e-06
1.323061674e-06
1.36794679e-06
1.401825509e-06
1.428671219e-06
1.4506815e-06
1.469190381e-06
1.485064029e-06
1.498894359e-06
1.511102575e-06
1.521998433e-06
1.53181608e-06
1.540736679e-06
1.548903234e-06
1.556430595e-06
1.56341237e-06
1.569925808e-06
1.576035289e-06
1.581794853e-06
1.587250052e-06
1.592439305e-06
1.597394942e-06
1.602144005e-06
1.606708932e-06
1.611108203e-06
1.615357035e-06
1.619468228e-06
1.623453182e-06
1.627323281e-06
1.631091806e-06
1.634783599e-06
1.638060267e-06
1.654105788e-06
1.294940185e-06
9.662698312e-06
5.030857064e-05
0.0007444516222
0.0008933575966
9.12174191e-07
1.153618685e-06
1.258934471e-06
1.323070333e-06
1.367944664e-06
1.401813773e-06
1.428650699e-06
1.450652786e-06
1.469153925e-06
1.485020203e-06
1.498843507e-06
1.511045048e-06
1.521934626e-06
1.531746462e-06
1.540661818e-06
1.548823819e-06
1.556347451e-06
1.563326462e-06
1.569838232e-06
1.575947243e-06
1.581707582e-06
1.587164763e-06
1.592357047e-06
1.597316447e-06
1.602069487e-06
1.606637855e-06
1.611039029e-06
1.615286987e-06
1.619393103e-06
1.623367213e-06
1.627219175e-06
1.630960898e-06
1.634623113e-06
1.637605862e-06
1.658603973e-06
1.343903587e-06
1.092579173e-05
6.215391286e-05
0.0007956317524
0.0009520746218
9.122024623e-07
1.153679231e-06
1.258964856e-06
1.323089311e-06
1.367953567e-06
1.401813701e-06
1.428642425e-06
1.450636869e-06
1.469130789e-06
1.484990204e-06
1.498806979e-06
1.511002344e-06
1.521886154e-06
1.531692713e-06
1.540603404e-06
1.548761493e-06
1.556282125e-06
1.563259222e-06
1.569770326e-06
1.575880057e-06
1.581642585e-06
1.587103412e-06
1.592300665e-06
1.597266031e-06
1.602025479e-06
1.606599867e-06
1.611005549e-06
1.615255095e-06
1.619358227e-06
1.623322935e-06
1.627157292e-06
1.630871639e-06
1.634498027e-06
1.637308338e-06
1.662667801e-06
1.32989445e-06
4.576413386e-07
7.797716345e-05
0.000847493567
0.001012881624
9.12237142e-07
1.153748554e-06
1.259005115e-06
1.323119095e-06
1.36797407e-06
1.401825949e-06
1.428647141e-06
1.450634575e-06
1.469121887e-06
1.484975036e-06
1.498785875e-06
1.510975662e-06
1.521854318e-06
1.53165625e-06
1.540562974e-06
1.548717923e-06
1.556236433e-06
1.563212628e-06
1.569724258e-06
1.575836123e-06
1.581602508e-06
1.587068936e-06
1.592273413e-06
1.597247306e-06
1.602015994e-06
1.60659943e-06
1.611012699e-06
1.615266751e-06
1.619369358e-06
1.623326284e-06
1.627143468e-06
1.630829362e-06
1.634416066e-06
1.637080557e-06
1.66644448e-06
1.219822667e-06
1.817601208e-06
9.539659032e-05
0.0008997875896
0.001075654913
9.122785967e-07
1.153826762e-06
1.25905562e-06
1.323160141e-06
1.368006715e-06
1.401851144e-06
1.42866556e-06
1.450646706e-06
1.469128114e-06
1.484975693e-06
1.498781293e-06
1.51096621e-06
1.521840446e-06
1.531638527e-06
1.540542123e-06
1.548694862e-06
1.556212301e-06
1.563188806e-06
1.569702375e-06
1.575818032e-06
1.581590222e-06
1.587064519e-06
1.592278822e-06
1.597264184e-06
1.602045378e-06
1.60664138e-06
1.611065864e-06
1.615327915e-06
1.619432992e-06
1.623384176e-06
1.627184721e-06
1.630840754e-06
1.63438258e-06
1.63695095e-06
1.668998329e-06
1.12238238e-06
3.238294171e-06
0.0001141390879
0.0009523957056
0.0011402855
9.123272579e-07
1.153913878e-06
1.259116716e-06
1.323212862e-06
1.368052001e-06
1.40188987e-06
1.428698354e-06
1.450674029e-06
1.469150336e-06
1.484993145e-06
1.498794316e-06
1.510975197e-06
1.521845883e-06
1.531641035e-06
1.540542504e-06
1.548694142e-06
1.556211766e-06
1.56319002e-06
1.569707171e-06
1.575828517e-06
1.581608761e-06
1.587093619e-06
1.592320927e-06
1.597321382e-06
1.602119055e-06
1.606731793e-06
1.611171671e-06
1.615445675e-06
1.619556634e-06
1.623504518e-06
1.627289179e-06
1.6309137e-06
1.634404338e-06
1.636939089e-06
1.669935792e-06
1.042131341e-06
5.006902726e-06
0.0001328646374
0.001005061389
0.001206860757
9.123836829e-07
1.154009809e-06
1.259188708e-06
1.323277625e-06
1.368110374e-06
1.401942661e-06
1.428746145e-06
1.450717262e-06
1.469189373e-06
1.485028326e-06
1.498826003e-06
1.511003817e-06
1.521871972e-06
1.531665286e-06
1.540565807e-06
1.548717629e-06
1.556236867e-06
1.563218525e-06
1.569741259e-06
1.575870718e-06
1.581661891e-06
1.587160687e-06
1.592404936e-06
1.597425011e-06
1.602244217e-06
1.606879069e-06
1.611339661e-06
1.615630359e-06
1.61975086e-06
1.623697664e-06
1.627466833e-06
1.631057637e-06
1.634491603e-06
1.636984718e-06
1.670639855e-06
9.691264081e-07
7.397480423e-06
0.0001612720516
0.001057123766
0.001275778892
9.124486739e-07
1.154114204e-06
1.259271842e-06
1.323354719e-06
1.368182205e-06
1.402009969e-06
1.428809478e-06
1.450777044e-06
1.469245969e-06
1.485082091e-06
1.498877324e-06
1.511053162e-06
1.521919938e-06
1.53171265e-06
1.54061359e-06
1.548767152e-06
1.556289805e-06
1.563276957e-06
1.569807719e-06
1.575948204e-06
1.581753782e-06
1.5872706e-06
1.592536526e-06
1.597581647e-06
1.602428498e-06
1.607092159e-06
1.611580454e-06
1.615894532e-06
1.620029966e-06
1.623978548e-06
1.62773183e-06
1.631285198e-06
1.634654787e-06
1.637111511e-06
1.670728733e-06
9.183231573e-07
8.906411844e-06
4.451570467e-06
0.001110854624
0.001347175785
9.125244292e-07
1.154225758e-06
1.259366362e-06
1.323444339e-06
1.368267734e-06
1.402092102e-06
1.428888735e-06
1.450853846e-06
1.469320698e-06
1.485155133e-06
1.498949121e-06
1.511124254e-06
1.521991018e-06
1.53178462e-06
1.540687631e-06
1.548844802e-06
1.55637303e-06
1.563368196e-06
1.569909911e-06
1.57606482e-06
1.581888813e-06
1.587428445e-06
1.59272174e-06
1.597798542e-06
1.602680559e-06
1.607381256e-06
1.611905861e-06
1.616251774e-06
1.620409662e-06
1.624365237e-06
1.628103434e-06
1.631614292e-06
1.634908889e-06
1.637330626e-06
1.670137505e-06
8.798127998e-07
9.712564767e-06
1.698258693e-05
0.001166420427
0.00142111218
9.126177437e-07
1.154340032e-06
1.259472465e-06
1.323546526e-06
1.368367113e-06
1.402189319e-06
1.428984284e-06
1.450948151e-06
1.469414168e-06
1.485248207e-06
1.499042312e-06
1.511218199e-06
1.522086533e-06
1.531882771e-06
1.540789794e-06
1.548952748e-06
1.556489012e-06
1.563495046e-06
1.57005111e-06
1.576224537e-06
1.582071881e-06
1.587640236e-06
1.592967917e-06
1.598084618e-06
1.603011216e-06
1.607759379e-06
1.61233129e-06
1.6167198e-06
1.620909556e-06
1.624878921e-06
1.628604501e-06
1.632068184e-06
1.635274402e-06
1.637643102e-06
1.669345319e-06
8.432715352e-07
1.068061545e-05
2.887923272e-05
0.001222072348
0.001497743318
9.12719117e-07
1.154464845e-06
1.25959024e-06
1.323661652e-06
1.368480684e-06
1.402301979e-06
1.429096534e-06
1.451060446e-06
1.469526964e-06
1.485362011e-06
1.499157727e-06
1.511335976e-06
1.522207633e-06
1.532008434e-06
1.540921637e-06
1.549092855e-06
1.556640049e-06
1.563660381e-06
1.570234897e-06
1.576431781e-06
1.582308427e-06
1.587912677e-06
1.593283343e-06
1.598450128e-06
1.603433113e-06
1.608242006e-06
1.612875472e-06
1.617320893e-06
1.621555356e-06
1.625547784e-06
1.629264162e-06
1.632675664e-06
1.635777123e-06
1.638070302e-06
1.668248253e-06
8.091560285e-07
1.186834969e-05
4.405125982e-05
0.001277747053
0.001576821617
9.128270012e-07
1.154598684e-06
1.259719088e-06
1.323789419e-06
1.368608288e-06
1.402430009e-06
1.429225494e-06
1.451190825e-06
1.469659283e-06
1.485496869e-06
1.499295844e-06
1.511478256e-06
1.522355228e-06
1.532162829e-06
1.541084751e-06
1.549267159e-06
1.556828695e-06
1.56386733e-06
1.570465083e-06
1.576691221e-06
1.582604298e-06
1.588253196e-06
1.593677477e-06
1.598907042e-06
1.603961299e-06
1.608847903e-06
1.613561497e-06
1.618082928e-06
1.622379828e-06
1.626408954e-06
1.630121979e-06
1.633475478e-06
1.636450773e-06
1.638647715e-06
1.666405814e-06
7.804963498e-07
1.357509526e-05
6.000784833e-05
0.001333053947
0.001657754839
9.129413591e-07
1.154741321e-06
1.259858693e-06
1.323929541e-06
1.368749694e-06
1.402573241e-06
1.429371066e-06
1.451339277e-06
1.469811219e-06
1.485652998e-06
1.499457034e-06
1.511645592e-06
1.522530095e-06
1.532347009e-06
1.541280542e-06
1.549477517e-06
1.557057388e-06
1.564119112e-06
1.570745864e-06
1.577008234e-06
1.582966205e-06
1.588670155e-06
1.594160953e-06
1.599469139e-06
1.604613607e-06
1.609599844e-06
1.614418001e-06
1.619041209e-06
1.623425347e-06
1.62751144e-06
1.631231736e-06
1.634522069e-06
1.637343883e-06
1.639387586e-06
1.664042196e-06
7.806938758e-07
1.517278916e-05
7.653958973e-05
0.001387554429
0.001739732968
9.130619593e-07
1.154892414e-06
1.260008697e-06
1.324081658e-06
1.368904563e-06
1.402731368e-06
1.429532992e-06
1.451505609e-06
1.469982664e-06
1.485830404e-06
1.499641445e-06
1.511838317e-06
1.522732799e-06
1.532561827e-06
1.541510219e-06
1.549725581e-06
1.557328356e-06
1.564418718e-06
1.571081301e-06
1.577388362e-06
1.583401697e-06
1.589173546e-06
1.594746535e-06
1.600152627e-06
1.605411053e-06
1.610525355e-06
1.615480577e-06
1.620240714e-06
1.624747268e-06
1.628920954e-06
1.632667648e-06
1.635893288e-06
1.638529263e-06
1.6403417e-06
1.661688625e-06
7.876601621e-07
1.716651428e-05
9.702224216e-05
0.001441233043
0.001821882488
9.131884352e-07
1.155051481e-06
1.260168609e-06
1.324245271e-06
1.369072398e-06
1.402903913e-06
1.429710826e-06
1.451689423e-06
1.47017329e-06
1.486028855e-06
1.499848976e-06
1.512056502e-06
1.522963636e-06
1.532807871e-06
1.541774752e-06
1.550012823e-06
1.557643717e-06
1.564769095e-06
1.571475409e-06
1.577837068e-06
1.583918319e-06
1.589773975e-06
1.595449073e-06
1.6009775e-06
1.606379544e-06
1.611658064e-06
1.616793437e-06
1.621738991e-06
1.626418471e-06
1.630726613e-06
1.634533868e-06
1.637702936e-06
1.640119989e-06
1.641607216e-06
1.659592928e-06
7.824057477e-07
2.045119428e-05
0.0001176515681
0.001493579555
0.001903395495
9.133203189e-07
1.155217907e-06
1.260337793e-06
1.324419719e-06
1.369252527e-06
1.403090203e-06
1.429903908e-06
1.45189009e-06
1.470382518e-06
1.486247849e-06
1.500079234e-06
1.512299907e-06
1.523222574e-06
1.533085393e-06
1.542074775e-06
1.550340387e-06
1.558005305e-06
1.565173016e-06
1.571932239e-06
1.578360128e-06
1.584524135e-06
1.590482641e-06
1.596284355e-06
1.601966362e-06
1.607550869e-06
1.613040611e-06
1.618412591e-06
1.623610003e-06
1.628535562e-06
1.633050658e-06
1.636978874e-06
1.640121513e-06
1.642296743e-06
1.643344548e-06
1.657856303e-06
8.209341541e-07
2.274240646e-05
0.0001388288682
0.001544383993
0.001983628122
9.134570466e-07
1.155390956e-06
1.260515467e-06
1.324604175e-06
1.369444089e-06
1.403289355e-06
1.430111348e-06
1.452106726e-06
1.47060949e-06
1.486486577e-06
1.500331494e-06
1.512567933e-06
1.523509199e-06
1.533394239e-06
1.542410496e-06
1.550708989e-06
1.558414547e-06
1.565632902e-06
1.572455612e-06
1.57896333e-06
1.585227716e-06
1.591311999e-06
1.597270156e-06
1.603144501e-06
1.608961462e-06
1.614725348e-06
1.620410379e-06
1.625950596e-06
1.631227608e-06
1.636062504e-06
1.640217403e-06
1.643409487e-06
1.645356069e-06
1.645898972e-06
1.654149338e-06
1.05342244e-06
1.937867008e-05
0.0001632734206
0.001593343052
0.002062038791
9.135979597e-07
1.155569765e-06
1.260700699e-06
1.324797642e-06
1.369646031e-06
1.403500272e-06
1.430332014e-06
1.452338177e-06
1.470853047e-06
1.486743901e-06
1.500604665e-06
1.512859576e-06
1.523822652e-06
1.533733771e-06
1.542781607e-06
1.551118806e-06
1.558872326e-06
1.566150664e-06
1.573048925e-06
1.579652243e-06
1.586037794e-06
1.592275383e-06
1.59842648e-06
1.604541394e-06
1.610654165e-06
1.616774634e-06
1.622877477e-06
1.628888665e-06
1.634669442e-06
1.639998673e-06
1.644563148e-06
1.647969515e-06
1.649795277e-06
1.649839042e-06
1.648995548e-06
1.638068198e-06
1.291616437e-06
0.0001928754205
0.001640413812
0.002138100959
9.137423049e-07
1.155753348e-06
1.26089241e-06
1.324998951e-06
1.369857104e-06
1.403721634e-06
1.430564524e-06
1.452583008e-06
1.471111716e-06
1.487018321e-06
1.500897251e-06
1.513173384e-06
1.524161569e-06
1.534102788e-06
1.543187181e-06
1.551569342e-06
1.559378814e-06
1.566727493e-06
1.57371492e-06
1.580431949e-06
1.586962983e-06
1.593386719e-06
1.599775202e-06
1.60619074e-06
1.612680024e-06
1.619264542e-06
1.625926535e-06
1.632590163e-06
1.639099278e-06
1.645192327e-06
1.650476009e-06
1.6544235e-06
1.656436395e-06
1.656163261e-06
1.655833982e-06
1.339690507e-06
3.100302062e-05
0.0002267199102
0.00168478388
0.002211559891
9.138892354e-07
1.155940599e-06
1.261089374e-06
1.325206765e-06
1.370075873e-06
1.403951906e-06
1.430807249e-06
1.452839502e-06
1.471383695e-06
1.48730797e-06
1.501207334e-06
1.513507412e-06
1.524524027e-06
1.534499453e-06
1.543625565e-06
1.552059288e-06
1.559933291e-06
1.567363632e-06
1.574455385e-06
1.581306685e-06
1.588011378e-06
1.594660133e-06
1.60133979e-06
1.608130373e-06
1.615098816e-06
1.622287975e-06
1.629699582e-06
1.637269984e-06
1.644839188e-06
1.652115209e-06
1.658633459e-06
1.663729793e-06