/*--------------------------------*- C++ -*----------------------------------*\
| =========                 |                                                 |
| \\      /  F ield         | OpenFOAM: The Open Source CFD Toolbox           |
|  \\    /   O peration     | Version:  v1912                                 |
|   \\  /    A nd           | Website:  www.openfoam.com                      |
|    \\/     M anipulation  |                                                 |
\*---------------------------------------------------------------------------*/
FoamFile
{
    version     2.0;
    format      ascii;
    class       volScalarField;
    location    "0.4";
    object      nut.gas;
}
// * * * * * * * * * * * * * * * * * * * * * * * * * * * * * * * * * * * * * //

dimensions      [0 2 -1 0 0 0 0];


internalField   nonuniform List<scalar> 
4800
(
1.325989808e-08
2.52207753e-08
3.369754958e-08
4.06710555e-08
4.676797848e-08
5.228378804e-08
5.738983834e-08
6.219872344e-08
6.679148577e-08
7.123089985e-08
7.556873601e-08
7.985010421e-08
8.411626615e-08
8.84065886e-08
9.276000703e-08
9.721620223e-08
1.018166213e-07
1.066054273e-07
1.116304438e-07
1.169441515e-07
1.226047901e-07
1.286776322e-07
1.352365037e-07
1.423656599e-07
1.501621608e-07
1.587389545e-07
1.682289835e-07
1.787907896e-07
1.906163593e-07
2.039424136e-07
2.190671516e-07
2.363755622e-07
2.5638356e-07
2.797666603e-07
3.077499438e-07
3.412021553e-07
3.799738722e-07
4.68482794e-07
3.135015899e-07
8.218750113e-07
2.220285986e-08
4.328727894e-08
5.841754667e-08
7.08827159e-08
8.174350084e-08
9.149822318e-08
1.004303969e-07
1.08719826e-07
1.164891319e-07
1.238264369e-07
1.307976357e-07
1.374535662e-07
1.438344546e-07
1.499728066e-07
1.558953603e-07
1.616244517e-07
1.671789952e-07
1.725752067e-07
1.778271502e-07
1.829471593e-07
1.87946173e-07
1.928340106e-07
1.976196058e-07
2.023112186e-07
2.069166372e-07
2.114433922e-07
2.158990016e-07
2.20291278e-07
2.246287477e-07
2.289212546e-07
2.331809261e-07
2.374228207e-07
2.416799848e-07
2.458501304e-07
2.511787314e-07
2.503348383e-07
2.715564871e-07
2.372475923e-07
3.233208636e-07
1.488390229e-06
2.162801982e-08
4.212084891e-08
5.68187378e-08
6.892657918e-08
7.947605417e-08
8.895129406e-08
9.762750821e-08
1.056791101e-07
1.132249675e-07
1.203504508e-07
1.271193569e-07
1.335808722e-07
1.397738892e-07
1.457298113e-07
1.514744489e-07
1.570293423e-07
1.624127117e-07
1.676401574e-07
1.727251865e-07
1.776796199e-07
1.825139128e-07
1.872374161e-07
1.918585973e-07
1.963852342e-07
2.008246013e-07
2.051836596e-07
2.094692729e-07
2.136884789e-07
2.178488614e-07
2.219590971e-07
2.260298356e-07
2.300747255e-07
2.341181944e-07
2.381391896e-07
2.426373799e-07
2.441720236e-07
2.649174218e-07
2.494264193e-07
4.243416864e-07
1.772129644e-06
2.166518956e-08
4.219620653e-08
5.69215832e-08
6.905202674e-08
7.9621143e-08
8.911403009e-08
9.780646843e-08
1.058732464e-07
1.134334966e-07
1.205727877e-07
1.273550708e-07
1.338296578e-07
1.400355462e-07
1.460042304e-07
1.517616012e-07
1.573292728e-07
1.62725535e-07
1.679660549e-07
1.730644064e-07
1.780324777e-07
1.828807948e-07
1.876187838e-07
1.922549933e-07
1.967972909e-07
2.012530493e-07
2.056293377e-07
2.099331348e-07
2.141715915e-07
2.1835238e-07
2.224841869e-07
2.265774636e-07
2.306452787e-07
2.347085104e-07
2.38770015e-07
2.429352825e-07
2.47604189e-07
2.540936412e-07
1.458393899e-07
4.573824449e-07
1.968877725e-06
2.166199374e-08
4.218966132e-08
5.691240443e-08
6.904067484e-08
7.960786208e-08
8.909898074e-08
9.778976144e-08
1.058549593e-07
1.134136834e-07
1.205514842e-07
1.273322989e-07
1.338054276e-07
1.400098576e-07
1.459770744e-07
1.517329602e-07
1.572991207e-07
1.626938364e-07
1.679327644e-07
1.730294666e-07
1.779958164e-07
1.828423208e-07
1.875783808e-07
1.922125104e-07
1.967525292e-07
2.012057413e-07
2.055791141e-07
2.098794733e-07
2.14113732e-07
2.182891813e-07
2.224138793e-07
2.264971893e-07
2.305505869e-07
2.345876874e-07
2.386422296e-07
2.42582386e-07
2.47647924e-07
2.476374851e-07
2.569386322e-07
4.29126417e-07
2.131720643e-06
2.16615482e-08
4.218877925e-08
5.691096347e-08
6.903877924e-08
7.960553732e-08
8.909624321e-08
9.778662208e-08
1.058514252e-07
1.134097587e-07
1.205471713e-07
1.273275986e-07
1.338003396e-07
1.400043808e-07
1.459712066e-07
1.517266982e-07
1.572924598e-07
1.6268677e-07
1.679252827e-07
1.73021555e-07
1.779874532e-07
1.828334734e-07
1.875690003e-07
1.922025237e-07
1.967418268e-07
2.011941583e-07
2.055664012e-07
2.098652505e-07
2.140974132e-07
2.182698508e-07
2.223900857e-07
2.264665912e-07
2.305094834e-07
2.345279249e-07
2.385780898e-07
2.422930604e-07
2.47452351e-07
2.57401776e-07
3.778465197e-07
9.749385138e-07
2.281803571e-06
2.166093754e-08
4.218756809e-08
5.690902604e-08
6.903625172e-08
7.960245682e-08
8.909263372e-08
9.778249955e-08
1.058467999e-07
1.134046369e-07
1.205415563e-07
1.273214912e-07
1.337937387e-07
1.399972836e-07
1.459636086e-07
1.517185931e-07
1.572838388e-07
1.626776213e-07
1.679155899e-07
1.730112952e-07
1.779765943e-07
1.828219696e-07
1.87556786e-07
1.921895044e-07
1.967278657e-07
2.01179056e-07
2.055498658e-07
2.098468505e-07
2.140765059e-07
2.182454701e-07
2.223607661e-07
2.264301041e-07
2.304622802e-07
2.344668178e-07
2.384736779e-07
2.422328887e-07
2.484900568e-07
2.402116756e-07
1.988272711e-07
9.085361936e-07
2.412393419e-06
2.166036112e-08
4.218644294e-08
5.690716589e-08
6.9033798e-08
7.959944268e-08
8.908908066e-08
9.777842189e-08
1.058422068e-07
1.133995338e-07
1.205359456e-07
1.273153735e-07
1.337871127e-07
1.399901462e-07
1.459559551e-07
1.517104171e-07
1.572751314e-07
1.626683701e-07
1.679057778e-07
1.730008982e-07
1.779655782e-07
1.828102857e-07
1.875443645e-07
1.921762449e-07
1.967136238e-07
2.011636236e-07
2.055329419e-07
2.098279986e-07
2.140550911e-07
2.182205659e-07
2.223310198e-07
2.263935513e-07
2.304159487e-07
2.34409177e-07
2.383639654e-07
2.423994341e-07
2.472705442e-07
2.318726939e-07
3.457969446e-07
1.121449075e-06
2.550348066e-06
2.165980648e-08
4.218537813e-08
5.690534835e-08
6.903137607e-08
7.959644651e-08
8.908552991e-08
9.777432962e-08
1.058375812e-07
1.133943795e-07
1.205302647e-07
1.273091659e-07
1.337803766e-07
1.399828784e-07
1.459481507e-07
1.517020693e-07
1.572662309e-07
1.626589041e-07
1.678957287e-07
1.729902407e-07
1.779542768e-07
1.827982893e-07
1.875316005e-07
1.921626094e-07
1.966989684e-07
2.011477369e-07
2.055155226e-07
2.098086182e-07
2.140331404e-07
2.181951818e-07
2.223009861e-07
2.263571647e-07
2.303710263e-07
2.34349877e-07
2.383249572e-07
2.41997138e-07
2.487803546e-07
2.344547266e-07
1.903500582e-07
1.101198929e-06
2.67878204e-06
2.165927577e-08
4.218437866e-08
5.690358137e-08
6.902899654e-08
7.959348147e-08
8.908199707e-08
9.777024068e-08
1.058329433e-07
1.133891966e-07
1.205245383e-07
1.273028954e-07
1.3377356e-07
1.399755122e-07
1.4594023e-07
1.516935872e-07
1.572571782e-07
1.626492681e-07
1.678854914e-07
1.729793771e-07
1.779427508e-07
1.827860497e-07
1.875185739e-07
1.921486917e-07
1.966840119e-07
2.01131533e-07
2.054977784e-07
2.097889237e-07
2.140109252e-07
2.18169658e-07
2.222710765e-07
2.263214152e-07
2.303275535e-07
2.342954069e-07
2.382736574e-07
2.416428023e-07
2.524165457e-07
1.835977651e-07
3.864396235e-07
1.62371926e-06
2.813028708e-06
2.165877028e-08
4.218344769e-08
5.69018704e-08
6.902666703e-08
7.959055723e-08
8.907849382e-08
9.776616876e-08
1.058283089e-07
1.133840028e-07
1.205187859e-07
1.272965836e-07
1.337666864e-07
1.399680732e-07
1.459322207e-07
1.51685001e-07
1.572480062e-07
1.626394979e-07
1.678751058e-07
1.729683516e-07
1.779310502e-07
1.827736238e-07
1.875053509e-07
1.921345698e-07
1.966688475e-07
2.011151251e-07
2.054798477e-07
2.097690849e-07
2.139886518e-07
2.181442376e-07
2.222415566e-07
2.262865396e-07
2.302857547e-07
2.34243341e-07
2.38233471e-07
2.412453515e-07
2.553553958e-07
1.640159017e-07
2.93020296e-07
1.934224194e-06
2.953558902e-06
2.165829151e-08
4.218258879e-08
5.690022155e-08
6.902439598e-08
7.958768453e-08
8.907503315e-08
9.776212904e-08
1.058236952e-07
1.133788174e-07
1.205130291e-07
1.272902541e-07
1.337597817e-07
1.399605896e-07
1.459241535e-07
1.516763439e-07
1.572387508e-07
1.626296329e-07
1.67864615e-07
1.729572119e-07
1.779192284e-07
1.827610719e-07
1.874920003e-07
1.921203233e-07
1.966535682e-07
2.010986226e-07
2.054618598e-07
2.097492538e-07
2.139664951e-07
2.18119112e-07
2.222126145e-07
2.26252676e-07
2.302456001e-07
2.341937297e-07
2.382005708e-07
2.407501237e-07
2.599698342e-07
8.045584164e-08
4.941152639e-07
2.223781619e-06
3.099581092e-06
2.165784107e-08
4.218180576e-08
5.68986413e-08
6.902219244e-08
7.958487485e-08
8.907162893e-08
9.775813772e-08
1.058191208e-07
1.133736613e-07
1.20507291e-07
1.272839323e-07
1.337528734e-07
1.399530914e-07
1.459160607e-07
1.516676509e-07
1.572294502e-07
1.626197144e-07
1.678540642e-07
1.729460077e-07
1.779073402e-07
1.827484553e-07
1.874785914e-07
1.921060308e-07
1.96638264e-07
2.010821291e-07
2.054439331e-07
2.097295643e-07
2.139446018e-07
2.18094432e-07
2.22184385e-07
2.262199055e-07
2.302070105e-07
2.341472624e-07
2.38152907e-07
2.406476037e-07
2.54065923e-07
3.184783449e-07
6.045067634e-07
2.487565196e-06
3.251066466e-06
2.165742075e-08
4.218110265e-08
5.689713658e-08
6.9020066e-08
7.958214038e-08
8.906829589e-08
9.775421205e-08
1.058146053e-07
1.133685567e-07
1.205015962e-07
1.272776452e-07
1.337459911e-07
1.399456104e-07
1.459079769e-07
1.516589594e-07
1.572201445e-07
1.62609786e-07
1.678435006e-07
1.729347905e-07
1.778954423e-07
1.827358365e-07
1.874651934e-07
1.9209177e-07
1.966230222e-07
2.010657421e-07
2.054261765e-07
2.097101353e-07
2.139230972e-07
2.180703206e-07
2.22156972e-07
2.261882839e-07
2.301699852e-07
2.341031273e-07
2.381011102e-07
2.406786116e-07
2.502196897e-07
3.206881762e-07
7.120716261e-07
2.737267598e-06
3.408351639e-06
2.165703246e-08
4.218048378e-08
5.689571473e-08
6.901802683e-08
7.957949404e-08
8.906504965e-08
9.775037029e-08
1.058101697e-07
1.133635269e-07
1.204959706e-07
1.272714212e-07
1.337391657e-07
1.399381802e-07
1.458999383e-07
1.516503082e-07
1.572108758e-07
1.625998928e-07
1.678329729e-07
1.729236132e-07
1.778835922e-07
1.827232787e-07
1.874518759e-07
1.920776173e-07
1.96607927e-07
2.010495545e-07
2.054086908e-07
2.096910742e-07
2.139020913e-07
2.180468829e-07
2.221304636e-07
2.261578645e-07
2.301345203e-07
2.340613854e-07
2.380437145e-07
2.407907214e-07
2.449557637e-07
3.932454926e-07
8.352570719e-07
2.977122366e-06
3.571520483e-06
2.165667826e-08
4.217995371e-08
5.689438348e-08
6.901608565e-08
7.957694944e-08
8.906190666e-08
9.774663167e-08
1.058058359e-07
1.133585966e-07
1.204904415e-07
1.272652903e-07
1.337324298e-07
1.399308361e-07
1.458919828e-07
1.516417382e-07
1.572016877e-07
1.625900818e-07
1.678225318e-07
1.729125304e-07
1.778718489e-07
1.827108457e-07
1.874387082e-07
1.920636484e-07
1.965930607e-07
2.01033655e-07
2.053915709e-07
2.0967248e-07
2.138816837e-07
2.180242133e-07
2.221049407e-07
2.261287061e-07
2.301006205e-07
2.340232043e-07
2.379406268e-07
2.417811628e-07
2.403628226e-07
2.164239975e-07
9.746825398e-07
3.208389008e-06
3.740198356e-06
2.165636036e-08
4.217951723e-08
5.689315096e-08
6.90142537e-08
7.957452086e-08
8.905888418e-08
9.774301639e-08
1.058016269e-07
1.133537918e-07
1.204850377e-07
1.27259284e-07
1.337258177e-07
1.39923615e-07
1.458841503e-07
1.51633292e-07
1.571926259e-07
1.625804019e-07
1.678122295e-07
1.729015979e-07
1.778602725e-07
1.826986021e-07
1.874257602e-07
1.920499386e-07
1.965785042e-07
2.010181302e-07
2.053749079e-07
2.096544466e-07
2.138619681e-07
2.180024008e-07
2.220804826e-07
2.26100873e-07
2.300684062e-07
2.339856647e-07
2.378891747e-07
2.417586366e-07
2.406868677e-07
2.022705043e-07
1.113406068e-06
3.432499138e-06
3.913725481e-06
2.165608112e-08
4.217917935e-08
5.689202568e-08
6.901254272e-08
7.957222321e-08
8.905600025e-08
9.773954557e-08
1.05797567e-07
1.133491395e-07
1.204797891e-07
1.272534353e-07
1.337193651e-07
1.399165557e-07
1.458764821e-07
1.516250141e-07
1.571837378e-07
1.625709035e-07
1.678021198e-07
1.728908733e-07
1.778489246e-07
1.82686614e-07
1.874131025e-07
1.920365634e-07
1.965643381e-07
2.010030652e-07
2.053587906e-07
2.09637065e-07
2.138430349e-07
2.179815324e-07
2.220571694e-07
2.260744379e-07
2.300379123e-07
2.339505654e-07
2.378277064e-07
2.421253226e-07
2.339469413e-07
2.479723107e-07
1.229978819e-06
3.65059621e-06
4.091100329e-06
2.165584302e-08
4.217894528e-08
5.689101649e-08
6.901096497e-08
7.957007202e-08
8.905327366e-08
9.773624119e-08
1.057936813e-07
1.13344668e-07
1.204747272e-07
1.272477783e-07
1.337131093e-07
1.399096982e-07
1.458690216e-07
1.516169506e-07
1.571750728e-07
1.625616393e-07
1.677922587e-07
1.728804162e-07
1.778378685e-07
1.826749489e-07
1.874008072e-07
1.920235996e-07
1.965506438e-07
2.009885458e-07
2.053433083e-07
2.096204263e-07
2.13824975e-07
2.179616954e-07
2.220350831e-07
2.260494771e-07
2.300092173e-07
2.339178854e-07
2.377615527e-07
2.427277541e-07
2.220124272e-07
3.284424731e-07
1.377398336e-06
3.862559397e-06
4.27149377e-06
2.165564868e-08
4.217882042e-08
5.689013257e-08
6.900953311e-08
7.956808341e-08
8.905072389e-08
9.773312608e-08
1.057899959e-07
1.133404067e-07
1.204698844e-07
1.27242349e-07
1.337070893e-07
1.399030848e-07
1.458618139e-07
1.516091497e-07
1.571666821e-07
1.625526638e-07
1.677827043e-07
1.728702883e-07
1.7782717e-07
1.826636769e-07
1.873889487e-07
1.920111265e-07
1.965375053e-07
2.009746601e-07
2.053285525e-07
2.096046239e-07
2.138078814e-07
2.179429803e-07
2.220143085e-07
2.26026069e-07
2.299824079e-07
2.338871893e-07
2.377100785e-07
2.430624422e-07
2.141210107e-07
3.822453929e-07
1.527877775e-06
4.069700999e-06
4.454273743e-06
2.165550087e-08
4.21788103e-08
5.688938338e-08
6.900826021e-08
7.956627398e-08
8.904837109e-08
9.773022388e-08
1.057865378e-07
1.133363861e-07
1.204652947e-07
1.272371845e-07
1.337013455e-07
1.39896759e-07
1.458549058e-07
1.516016618e-07
1.571586195e-07
1.625440341e-07
1.677735172e-07
1.728605542e-07
1.778168977e-07
1.826528709e-07
1.873776049e-07
1.919992266e-07
1.9652501e-07
2.009615003e-07
2.053146191e-07
2.09589756e-07
2.137918524e-07
2.179254824e-07
2.219949348e-07
2.260042933e-07
2.299575511e-07
2.33858627e-07
2.376703904e-07
2.432194199e-07
2.086946176e-07
4.27740483e-07
1.657513614e-06
4.272824498e-06
4.63845981e-06
2.165540244e-08
4.217892059e-08
5.688877865e-08
6.900715971e-08
7.956466083e-08
8.904623598e-08
9.772755892e-08
1.05783335e-07
1.133326376e-07
1.204609931e-07
1.272323233e-07
1.336959199e-07
1.398907665e-07
1.458483466e-07
1.515945393e-07
1.571509408e-07
1.625358099e-07
1.67764761e-07
1.728512815e-07
1.778071237e-07
1.826426079e-07
1.873668579e-07
1.919879876e-07
1.96513251e-07
2.009491646e-07
2.053016109e-07
2.095759284e-07
2.137769944e-07
2.179093052e-07
2.219770573e-07
2.259842303e-07
2.299347006e-07
2.338323661e-07
2.37637046e-07
2.433508984e-07
2.027426323e-07
4.608772172e-07
5.18333538e-07
4.476039795e-06
4.823095872e-06
2.165535637e-08
4.217915698e-08
5.68883283e-08
6.900624533e-08
7.956326144e-08
8.90443398e-08
9.772515619e-08
1.057804163e-07
1.133291939e-07
1.204570159e-07
1.272278054e-07
1.336908562e-07
1.398851545e-07
1.458421871e-07
1.515878371e-07
1.57143705e-07
1.62528054e-07
1.677565028e-07
1.728425417e-07
1.777979245e-07
1.826329698e-07
1.873567952e-07
1.919775031e-07
1.965023285e-07
2.009377595e-07
2.052896399e-07
2.095632573e-07
2.137634253e-07
2.178945637e-07
2.219607814e-07
2.259659651e-07
2.299139004e-07
2.338084189e-07
2.376111377e-07
2.433553251e-07
1.992228494e-07
4.763011487e-07
6.851518701e-07
4.676486081e-06
5.007724591e-06
2.165536572e-08
4.21795252e-08
5.688804238e-08
6.900553097e-08
7.956209358e-08
8.90427042e-08
9.772304125e-08
1.057778111e-07
1.133260881e-07
1.204534002e-07
1.272236722e-07
1.336861997e-07
1.398799724e-07
1.458364807e-07
1.515816126e-07
1.571369735e-07
1.625208325e-07
1.677488133e-07
1.728344109e-07
1.777893817e-07
1.82624044e-07
1.873475111e-07
1.919678748e-07
1.964923516e-07
2.00927402e-07
2.052788304e-07
2.095518728e-07
2.137512781e-07
2.178813889e-07
2.219462281e-07
2.259495945e-07
2.298951995e-07
2.337866997e-07
2.375939441e-07
2.431849521e-07
1.99288897e-07
4.799317049e-07
8.869807424e-07
4.873806777e-06
5.192065457e-06
2.165543365e-08
4.21800309e-08
5.688793101e-08
6.900503071e-08
7.956117524e-08
8.904135115e-08
9.772124009e-08
1.057755495e-07
1.133233546e-07
1.204501846e-07
1.27219966e-07
1.336819973e-07
1.398752712e-07
1.458312831e-07
1.515759259e-07
1.571308114e-07
1.625142152e-07
1.677417679e-07
1.728269701e-07
1.777815827e-07
1.826159253e-07
1.873391083e-07
1.91959214e-07
1.964834412e-07
2.009182225e-07
2.052693223e-07
2.095419229e-07
2.137407058e-07
2.178699336e-07
2.219335406e-07
2.259352371e-07
2.298786598e-07
2.337673822e-07
2.375800083e-07
2.429181177e-07
2.007469886e-07
5.022200815e-07
1.058797396e-06
5.067550642e-06
5.37580326e-06
2.165556338e-08
4.218067956e-08
5.688800433e-08
6.900475858e-08
7.956052449e-08
8.90403028e-08
9.771977899e-08
1.05773662e-07
1.133210282e-07
1.204474083e-07
1.272167308e-07
1.336782972e-07
1.398711042e-07
1.458266521e-07
1.515708401e-07
1.571252871e-07
1.625082765e-07
1.677354468e-07
1.728203064e-07
1.777746222e-07
1.826087169e-07
1.873316995e-07
1.91951644e-07
1.964757323e-07
2.009103685e-07
2.052612755e-07
2.095335786e-07
2.137318874e-07
2.178603791e-07
2.219228929e-07
2.259230437e-07
2.298643775e-07
2.337506363e-07
2.375717421e-07
2.421991446e-07
2.131030059e-07
5.592857038e-07
1.217331136e-06
5.257768563e-06
5.558805869e-06
2.165575825e-08
4.218147639e-08
5.688827234e-08
6.900472856e-08
7.956015933e-08
8.903958128e-08
9.771868438e-08
1.057721794e-07
1.133191442e-07
1.204451112e-07
1.272140114e-07
1.336751493e-07
1.398675264e-07
1.458226484e-07
1.515664215e-07
1.571204729e-07
1.625030949e-07
1.67729936e-07
1.728145138e-07
1.77768603e-07
1.826025318e-07
1.873254092e-07
1.919453027e-07
1.964693773e-07
2.009040084e-07
2.052548743e-07
2.095270394e-07
2.137250344e-07
2.178529429e-07
2.219144986e-07
2.259132085e-07
2.298525176e-07
2.33736535e-07
2.375429396e-07
2.422400644e-07
2.174171586e-07
6.022429284e-07
1.420976952e-06
5.445884841e-06
5.741276576e-06
2.165602167e-08
4.21824262e-08
5.688874485e-08
6.900495435e-08
7.956009753e-08
8.903920859e-08
9.77179826e-08
1.057711327e-07
1.133177383e-07
1.20443334e-07
1.272118534e-07
1.336726049e-07
1.398645945e-07
1.458193346e-07
1.515627393e-07
1.571164449e-07
1.624987545e-07
1.677253277e-07
1.728096936e-07
1.777636374e-07
1.825974944e-07
1.873203763e-07
1.919403451e-07
1.964645501e-07
2.008993362e-07
2.052503342e-07
2.095225412e-07
2.137204004e-07
2.178478899e-07
2.219086228e-07
2.259059821e-07
2.298432936e-07
2.337250618e-07
2.375099897e-07
2.425692153e-07
2.214894365e-07
6.404037819e-07
1.574178546e-06
5.630182021e-06
5.923657635e-06
2.165635726e-08
4.218353314e-08
5.688943138e-08
6.900544925e-08
7.956035641e-08
8.903920629e-08
9.771769966e-08
1.057705524e-07
1.13316846e-07
1.204421175e-07
1.272103033e-07
1.33670716e-07
1.398623672e-07
1.458167762e-07
1.51559866e-07
1.571132836e-07
1.624953441e-07
1.677217206e-07
1.72805956e-07
1.777598481e-07
1.825937426e-07
1.873167559e-07
1.919369469e-07
1.964614495e-07
2.008965768e-07
2.052479077e-07
2.095203641e-07
2.137182905e-07
2.178455441e-07
2.219055965e-07
2.259016864e-07
2.298370041e-07
2.33716119e-07
2.374884129e-07
2.42866199e-07
2.203319856e-07
1.326776064e-07
1.757515301e-06
5.811005808e-06
6.106116673e-06
2.165676892e-08
4.21848005e-08
5.689034096e-08
6.900622594e-08
7.956095265e-08
8.903959527e-08
9.771786095e-08
1.057704687e-07
1.133165027e-07
1.204415023e-07
1.272094077e-07
1.336695358e-07
1.398609043e-07
1.458150406e-07
1.515578773e-07
1.571110736e-07
1.624929586e-07
1.677192211e-07
1.728034203e-07
1.777573702e-07
1.825914292e-07
1.873147214e-07
1.919353045e-07
1.964602979e-07
2.008959821e-07
2.052478798e-07
2.095208291e-07
2.137190617e-07
2.178462928e-07
2.219058254e-07
2.259007268e-07
2.298340251e-07
2.337102591e-07
2.374718928e-07
2.431418726e-07
2.110169353e-07
2.61763338e-07
1.939516362e-06
5.987935125e-06
6.288412959e-06
2.165726099e-08
4.218623024e-08
5.689148204e-08
6.900729628e-08
7.956190196e-08
8.904039542e-08
9.771849084e-08
1.05770911e-07
1.133167428e-07
1.20441529e-07
1.272092132e-07
1.336691177e-07
1.398602669e-07
1.458141969e-07
1.515568517e-07
1.571099039e-07
1.624916988e-07
1.677179431e-07
1.728022158e-07
1.777563498e-07
1.8259072e-07
1.873144607e-07
1.919356305e-07
1.964613359e-07
2.008978245e-07
2.052505594e-07
2.095242863e-07
2.13723108e-07
2.17850573e-07
2.219097822e-07
2.259035904e-07
2.298348279e-07
2.33707865e-07
2.374624923e-07
2.433281104e-07
2.024134568e-07
3.490695301e-07
2.118044659e-06
6.160958778e-06
6.47041499e-06
2.165783858e-08
4.218782277e-08
5.689286235e-08
6.900867107e-08
7.956321884e-08
8.904162529e-08
9.771961236e-08
1.057719071e-07
1.133175998e-07
1.204422367e-07
1.272097659e-07
1.336695152e-07
1.398605167e-07
1.458143163e-07
1.515568704e-07
1.571098673e-07
1.624916709e-07
1.677180082e-07
1.728024798e-07
1.777569412e-07
1.825917902e-07
1.87316178e-07
1.919381681e-07
1.964648535e-07
2.00902444e-07
2.052563345e-07
2.095311664e-07
2.137308982e-07
2.178588891e-07
2.219180072e-07
2.259108413e-07
2.298399679e-07
2.337094206e-07
2.374616321e-07
2.433964385e-07
1.9504292e-07
4.338753152e-07
2.282644149e-06
6.329616483e-06
6.652625349e-06
2.165850831e-08
4.218957638e-08
5.68944888e-08
6.901035982e-08
7.956491626e-08
8.904330178e-08
9.772124675e-08
1.057734832e-07
1.133191053e-07
1.204436634e-07
1.272111106e-07
1.336707811e-07
1.398617156e-07
1.458154707e-07
1.515580167e-07
1.571110587e-07
1.624929813e-07
1.677195374e-07
1.728043561e-07
1.777593214e-07
1.82594857e-07
1.873201358e-07
1.919432312e-07
1.964712265e-07
2.009102914e-07
2.052657414e-07
2.095420896e-07
2.137431152e-07
2.178719521e-07
2.219312074e-07
2.259231725e-07
2.298501101e-07
2.337156597e-07
2.374649416e-07
2.434477424e-07
1.880871715e-07
5.272709878e-07
2.511569234e-06
6.492561904e-06
6.836104175e-06
2.165927969e-08
4.219148463e-08
5.689636691e-08
6.901237007e-08
7.956700495e-08
8.904543927e-08
9.77234126e-08
1.057756625e-07
1.13321288e-07
1.204458437e-07
1.272132885e-07
1.336729638e-07
1.398639196e-07
1.458177252e-07
1.515603671e-07
1.571135706e-07
1.62495745e-07
1.67722672e-07
1.728080141e-07
1.777636916e-07
1.826001611e-07
1.873266218e-07
1.919511618e-07
1.964808587e-07
2.009218449e-07
2.052793512e-07
2.095577456e-07
2.137605891e-07
2.178907226e-07
2.219504026e-07
2.259415651e-07
2.298661435e-07
2.337273262e-07
2.374741379e-07
2.43454218e-07
1.830908874e-07
5.781833156e-07
9.078718611e-07
6.65799094e-06
7.021453781e-06
2.166017879e-08
4.219352365e-08
5.689850218e-08
6.901470683e-08
7.95694919e-08
8.904804747e-08
9.772612295e-08
1.057784623e-07
1.133241698e-07
1.204488057e-07
1.272163352e-07
1.336761083e-07
1.398671857e-07
1.458211509e-07
1.51564009e-07
1.571175091e-07
1.625000898e-07
1.677275664e-07
1.728136388e-07
1.777702684e-07
1.82607955e-07
1.873359358e-07
1.919623236e-07
1.964941958e-07
2.009376467e-07
2.05297814e-07
2.095789013e-07
2.137842169e-07
2.179162552e-07
2.219768255e-07
2.259673543e-07
2.298893289e-07
2.337454916e-07
2.374900294e-07
2.434111381e-07
1.792107674e-07
6.037903393e-07
1.019026764e-06
6.823251318e-06
7.209267745e-06
2.166128624e-08
4.219561228e-08
5.6900899e-08
6.901737121e-08
7.957238145e-08
8.90511346e-08
9.772939034e-08
1.057819e-07
1.133277743e-07
1.204525798e-07
1.272202897e-07
1.336802634e-07
1.398715744e-07
1.458258227e-07
1.51569034e-07
1.571229842e-07
1.625061445e-07
1.677343709e-07
1.728214101e-07
1.777792758e-07
1.826185211e-07
1.873484323e-07
1.919771582e-07
1.965117856e-07
2.009583738e-07
2.053219599e-07
2.096065565e-07
2.13815168e-07
2.17949866e-07
2.220119214e-07
2.260021237e-07
2.299213026e-07
2.337716191e-07
2.375126902e-07
2.433534034e-07
1.75449721e-07
6.331797998e-07
1.199756074e-06
6.984950741e-06
7.399523161e-06
2.166248928e-08
4.219789342e-08
5.690355937e-08
6.902037281e-08
7.957568355e-08
8.905471197e-08
9.773322871e-08
1.057859934e-07
1.133321238e-07
1.204571945e-07
1.272251871e-07
1.336854725e-07
1.398771385e-07
1.458318037e-07
1.515755186e-07
1.571300901e-07
1.625140289e-07
1.677432393e-07
1.728315249e-07
1.777909627e-07
1.826321729e-07
1.873645062e-07
1.919961641e-07
1.965342572e-07
2.009848172e-07
2.05352775e-07
2.096419259e-07
2.138549123e-07
2.179932793e-07
2.22057611e-07
2.260478898e-07
2.299640887e-07
2.338075498e-07
2.375436672e-07
2.432734264e-07
1.718640725e-07
6.674778321e-07
1.410084257e-06
7.142969531e-06
7.59089983e-06
2.16637695e-08
4.220033938e-08
5.690646974e-08
6.902370384e-08
7.957939348e-08
8.905877721e-08
9.773763827e-08
1.057907458e-07
1.133372261e-07
1.204626626e-07
1.272310476e-07
1.336917651e-07
1.398839196e-07
1.45839152e-07
1.515835409e-07
1.5713893e-07
1.625238759e-07
1.677543393e-07
1.728441924e-07
1.77805592e-07
1.82649247e-07
1.873845948e-07
1.920199099e-07
1.965623446e-07
2.010179177e-07
2.053914542e-07
2.09686506e-07
2.139052874e-07
2.180486911e-07
2.221164232e-07
2.261073897e-07
2.300204091e-07
2.338556884e-07
2.375855302e-07
2.431390518e-07
1.687929874e-07
7.13876969e-07
1.607805297e-06
7.296419972e-06
7.780894834e-06
2.166512646e-08
4.220294597e-08
5.690962291e-08
6.902735679e-08
7.958350449e-08
8.906332493e-08
9.774261564e-08
1.057961567e-07
1.133430844e-07
1.204689928e-07
1.272378868e-07
1.336991654e-07
1.398919534e-07
1.458479173e-07
1.515931698e-07
1.571495977e-07
1.625358126e-07
1.67767843e-07
1.72859643e-07
1.778234661e-07
1.826701297e-07
1.874091899e-07
1.920490344e-07
1.965968924e-07
2.01058789e-07
2.054394463e-07
2.097421511e-07
2.139686189e-07
2.181189389e-07
2.221916929e-07
2.261843414e-07
2.30094086e-07
2.339194943e-07
2.376391606e-07
2.429665573e-07
1.688143449e-07
7.547370587e-07
1.792249993e-06
7.444337561e-06
7.966329839e-06
2.166655741e-08
4.220570693e-08
5.691301076e-08
6.903132224e-08
7.958800663e-08
8.906834532e-08
9.774815186e-08
1.058022189e-07
1.133496946e-07
1.204761854e-07
1.272457107e-07
1.33707688e-07
1.399012654e-07
1.458581401e-07
1.516044643e-07
1.571621767e-07
1.625499547e-07
1.677839101e-07
1.728780993e-07
1.778448965e-07
1.826952553e-07
1.874388791e-07
1.920843037e-07
1.96638893e-07
2.011087431e-07
2.054985011e-07
2.098111637e-07
2.140478661e-07
2.182077257e-07
2.222878872e-07
2.262838703e-07
2.3019058e-07
2.340041538e-07
2.377083029e-07
2.427946742e-07
1.695658541e-07
8.028155911e-07
1.997774975e-06
7.58690108e-06
8.144080876e-06
2.166805796e-08
4.220861339e-08
5.691662215e-08
6.90355871e-08
7.959288544e-08
8.907382314e-08
9.775423159e-08
1.058089179e-07
1.133570439e-07
1.204842307e-07
1.27254515e-07
1.337173359e-07
1.399118691e-07
1.458698479e-07
1.516174719e-07
1.57176741e-07
1.625664122e-07
1.67802698e-07
1.728997813e-07
1.778701896e-07
1.827250572e-07
1.874742853e-07
1.921266088e-07
1.966895698e-07
2.01169395e-07
2.055707536e-07
2.098964004e-07
2.141468109e-07
2.183199202e-07
2.224110562e-07
2.264131603e-07
2.303178649e-07
2.341177148e-07
2.377999805e-07
2.426415214e-07
1.68999328e-07
8.762674608e-07
2.186451782e-06
7.723137648e-06
8.311867114e-06
2.166962257e-08
4.221165411e-08
5.69204427e-08
6.904013412e-08
7.959812129e-08
8.907973694e-08
9.776083221e-08
1.058162307e-07
1.133651098e-07
1.204931081e-07
1.272642827e-07
1.337280981e-07
1.399237627e-07
1.458830525e-07
1.516322232e-07
1.571933482e-07
1.6258528e-07
1.678243545e-07
1.729249106e-07
1.778996696e-07
1.827599981e-07
1.875160654e-07
1.921768952e-07
1.967503042e-07
2.01242725e-07
2.056589083e-07
2.100014755e-07
2.142703067e-07
2.184619663e-07
2.225694854e-07
2.265824362e-07
2.3048787e-07
2.342730229e-07
2.379257806e-07
2.425145361e-07
1.731103856e-07
9.240705085e-07
2.365082777e-06
7.852815536e-06
8.468858335e-06
2.167124452e-08
4.221481559e-08
5.692445469e-08
6.904494168e-08
7.960368909e-08
8.908605864e-08
9.776792318e-08
1.058241248e-07
1.133738592e-07
1.205027848e-07
1.272749829e-07
1.337399479e-07
1.399369268e-07
1.458977462e-07
1.516487281e-07
1.572120339e-07
1.626066318e-07
1.678490081e-07
1.729536957e-07
1.779336603e-07
1.828005694e-07
1.875649492e-07
1.922362264e-07
1.968226392e-07
2.013309989e-07
2.057662803e-07
2.101310498e-07
2.144246969e-07
2.186424558e-07
2.227746339e-07
2.26806456e-07
2.307187854e-07
2.344911272e-07
2.381106253e-07
2.422432533e-07
1.960966815e-07
8.531239182e-07
2.555742371e-06
7.975469013e-06
8.615568311e-06
2.1672916e-08
4.221808206e-08
5.692863704e-08
6.904998371e-08
7.960955816e-08
8.909275327e-08
9.777546566e-08
1.058325581e-07
1.133832471e-07
1.205132144e-07
1.272865691e-07
1.337528407e-07
1.399513217e-07
1.45913898e-07
1.516669707e-07
1.572328063e-07
1.626305126e-07
1.6787676e-07
1.729863218e-07
1.779724729e-07
1.828472705e-07
1.876217168e-07
1.923057974e-07
1.969083708e-07
2.014368759e-07
2.058968103e-07
2.102909527e-07
2.146183406e-07
2.188729982e-07
2.230424574e-07
2.271067183e-07
2.310386556e-07
2.348072453e-07
2.383954581e-07
2.418655834e-07
2.445315783e-07
2.265008956e-07
2.768961137e-06
8.09127363e-06
8.753204022e-06
2.167462805e-08
4.222143548e-08
5.693296535e-08
6.905522973e-08
7.961569217e-08
8.909977891e-08
9.778341236e-08
1.058414782e-07
1.133932166e-07
1.20524336e-07
1.272989776e-07
1.337667119e-07
1.399668842e-07
1.459314504e-07
1.516869048e-07
1.572556394e-07
1.626569303e-07
1.679076725e-07
1.730229373e-07
1.780163906e-07
1.829005932e-07
1.87687181e-07
1.923869122e-07
1.970095482e-07
2.015635183e-07
2.060552947e-07
2.10488407e-07
2.148620523e-07
2.191693626e-07
2.233953509e-07
2.275146217e-07
2.314906248e-07
2.352793695e-07
2.388519338e-07
2.423665764e-07
2.21141984e-07
1.079004685e-06
2.994197274e-06
8.198666511e-06
8.883695718e-06
2.167637063e-08
4.222485563e-08
5.693741193e-08
6.906064488e-08
7.96220493e-08
8.910708677e-08
9.77917075e-08
1.058508224e-07
1.134036982e-07
1.205360735e-07
1.273121268e-07
1.337814754e-07
1.399835259e-07
1.459503155e-07
1.517084487e-07
1.572804662e-07
1.626858461e-07
1.679417569e-07
1.730636379e-07
1.780656479e-07
1.82960998e-07
1.877621647e-07
1.924809669e-07
1.971284665e-07
2.017146201e-07
2.062475744e-07
2.107324902e-07
2.151697831e-07
2.195527783e-07
2.238648754e-07
2.280761722e-07
2.321407904e-07
2.360008722e-07
2.396158796e-07