/*--------------------------------*- C++ -*----------------------------------*\
| =========                 |                                                 |
| \\      /  F ield         | OpenFOAM: The Open Source CFD Toolbox           |
|  \\    /   O peration     | Version:  v1912                                 |
|   \\  /    A nd           | Website:  www.openfoam.com                      |
|    \\/     M anipulation  |                                                 |
\*---------------------------------------------------------------------------*/
FoamFile
{
    version     2.0;
    format      ascii;
    class       surfaceScalarField;
    location    "0.4";
    object      phi;
}
// * * * * * * * * * * * * * * * * * * * * * * * * * * * * * * * * * * * * * //

dimensions      [0 3 -1 0 0 0 0];
oriented        oriented;


internalField   nonuniform List<scalar> 
9440
(
1.076135257e-10
-1.076135258e-10
4.326645463e-10
-3.250507672e-10
9.76492386e-10
-5.438273175e-10
1.74158404e-09
-7.650908849e-10
2.731441146e-09
-9.898560878e-10
3.950547361e-09
-1.219104948e-09
5.404332594e-09
-1.453783718e-09
7.09912831e-09
-1.694793957e-09
9.042115171e-09
-1.942984858e-09
1.1241262e-08
-2.199144587e-09
1.370525642e-08
-2.463991943e-09
1.644342699e-08
-2.738167854e-09
1.946565649e-08
-3.022226552e-09
2.278228708e-08
-3.316627411e-09
2.640401828e-08
-3.62172779e-09
3.034179941e-08
-3.937777488e-09
3.460671884e-08
-4.264915555e-09
3.920989356e-08
-4.603170632e-09
4.416236395e-08
-4.952466058e-09
4.947500046e-08
-5.31263195e-09
5.515843234e-08
-5.683427094e-09
6.12230118e-08
-6.064574442e-09
6.767883372e-08
-6.455816665e-09
7.453584092e-08
-6.857001722e-09
8.180405882e-08
-7.268212195e-09
8.949402919e-08
-7.689964432e-09
9.761755289e-08
-8.12351753e-09
1.061889215e-07
-8.571362194e-09
1.152269415e-07
-9.038013373e-09
1.247582786e-07
-9.531330223e-09
1.348230706e-07
-1.00647849e-08
1.454845771e-07
-1.066149921e-08
1.568463385e-07
-1.136175391e-08
1.690832071e-07
-1.223686081e-08
1.825013561e-07
-1.341814107e-08
1.975291227e-07
-1.502775836e-08
2.161502465e-07
-1.862111539e-08
2.274533166e-07
-1.130306149e-08
3.813920461e-07
-1.539503228e-07
3.917633501e-07
1.109738242e-10
-2.185870962e-10
4.443408157e-10
-6.584170349e-10
1.001947227e-09
-1.10143255e-09
1.786419115e-09
-1.549561149e-09
2.801423344e-09
-2.004858248e-09
4.051647448e-09
-2.46932654e-09
5.542767664e-09
-2.944900983e-09
7.281406975e-09
-3.433429882e-09
9.275084736e-09
-3.936658804e-09
1.153215699e-08
-4.456212596e-09
1.40617493e-08
-4.993579584e-09
1.687368092e-08
-5.550094392e-09
1.997838e-08
-6.12692013e-09
2.33867912e-08
-6.72503269e-09
2.711027661e-08
-7.345206868e-09
3.116051166e-08
-7.988005793e-09
3.554937856e-08
-8.653775302e-09
4.028886084e-08
-9.342645339e-09
4.539094402e-08
-1.005454126e-08
5.086752971e-08
-1.078920924e-08
5.673037273e-08
-1.154626131e-08
6.299105552e-08
-1.232524801e-08
6.96610195e-08
-1.312577101e-08
7.675168231e-08
-1.394765449e-08
8.427468465e-08
-1.479120407e-08
9.224233153e-08
-1.565760044e-08
1.006683308e-07
-1.654950551e-08
1.095689929e-07
-1.747201257e-08
1.189651603e-07
-1.843416868e-08
1.288853206e-07
-1.945147802e-08
1.393706849e-07
-2.055013636e-08
1.504836127e-07
-2.177441368e-08
1.623218014e-07
-2.319992887e-08
1.750428222e-07
-2.49578675e-08
1.889172831e-07
-2.729258749e-08
2.044362717e-07
-3.054673206e-08
2.234247647e-07
-3.760959306e-08
2.359087141e-07
-2.378699513e-08
3.069975413e-07
-2.250653702e-07
7.105895851e-07
1.10725822e-10
-3.293127156e-10
4.433188813e-10
-9.910094889e-10
9.994779379e-10
-1.65759061e-09
1.781894617e-09
-2.331976449e-09
2.794275584e-09
-3.017237452e-09
4.041345461e-09
-3.716394273e-09
5.528819279e-09
-4.432372279e-09
7.263363168e-09
-5.167970875e-09
9.252544915e-09
-5.925837282e-09
1.150477625e-08
-6.708440294e-09
1.402924526e-08
-7.518044598e-09
1.683583986e-08
-8.356684622e-09
1.9935063e-08
-9.226138549e-09
2.333793971e-08
-1.012790433e-08
2.705591679e-08
-1.106317851e-08
3.110075681e-08
-1.203284002e-08
3.548442886e-08
-1.30374412e-08
4.021899917e-08
-1.407720915e-08
4.531652646e-08
-1.515206169e-08
5.078896806e-08
-1.626164363e-08
5.664810613e-08
-1.740539181e-08
6.290550574e-08
-1.85826397e-08
6.957252194e-08
-1.979277893e-08
7.666038019e-08
-2.103550411e-08
8.418036495e-08
-2.231117983e-08
9.21441672e-08
-2.362139334e-08
1.005644676e-07
-2.49697962e-08
1.094558703e-07
-2.636340526e-08
1.188363637e-07
-2.781465164e-08
1.287295765e-07
-2.934468007e-08
1.391682389e-07
-3.098878759e-08
1.501994536e-07
-3.280561697e-08
1.618926659e-07
-3.489312934e-08
1.743516227e-07
-3.741681218e-08
1.877282811e-07
-4.066923348e-08
2.022013695e-07
-4.501980768e-08
2.183703597e-07
-5.377857011e-08
2.3225529e-07
-3.767191165e-08
2.61295459e-07
-2.541544482e-07
9.853230227e-07
1.102649726e-10
-4.395774936e-10
4.414867451e-10
-1.322230681e-09
9.953024673e-10
-2.211405375e-09
1.774422652e-09
-3.111095306e-09
2.782592072e-09
-4.025405175e-09
4.024579617e-09
-4.958379752e-09
5.50615137e-09
-5.913941601e-09
7.234032359e-09
-6.895849072e-09
9.215858259e-09
-7.907660028e-09
1.146011788e-08
-8.9526964e-09
1.3976086e-08
-1.003400886e-08
1.677374686e-08
-1.115434127e-08
1.986370863e-08
-1.231609576e-08
2.325710915e-08
-1.352129993e-08
2.696551364e-08
-1.477157774e-08
3.100080576e-08
-1.606812654e-08
3.537507395e-08
-1.741170345e-08
4.010049598e-08
-1.88026249e-08
4.518922558e-08
-2.024078465e-08
5.065328666e-08
-2.172569774e-08
5.650448215e-08
-2.325657998e-08
6.275432727e-08
-2.483247715e-08
6.941402008e-08
-2.645246372e-08
7.649446635e-08
-2.811594201e-08
8.400638264e-08
-2.982308744e-08
9.19605085e-08
-3.157551016e-08
1.003679685e-07
-3.337724681e-08
1.09240837e-07
-3.523626404e-08
1.185929652e-07
-3.716676978e-08
1.284411205e-07
-3.919282498e-08
1.388064229e-07
-4.135407921e-08
1.49715845e-07
-4.371502802e-08
1.612029253e-07
-4.638019827e-08
1.733051213e-07
-4.951899639e-08
1.860506938e-07
-5.34147939e-08
1.994112177e-07
-5.838031918e-08
2.130223673e-07
-6.738970715e-08
2.273033402e-07
-5.195287131e-08
2.414909711e-07
-2.684141239e-07
1.241528787e-06
1.096369208e-10
-5.492142218e-10
4.389665383e-10
-1.651559725e-09
9.89608637e-10
-2.762046528e-09
1.764290592e-09
-3.88577595e-09
2.766797463e-09
-5.027910369e-09
4.001951764e-09
-6.193532011e-09
5.475584688e-09
-7.387572123e-09
7.194498027e-09
-8.614759648e-09
9.16641653e-09
-9.879575414e-09
1.139993078e-08
-1.118620718e-08
1.39044303e-08
-1.253850456e-08
1.669002685e-08
-1.393993365e-08
1.976746801e-08
-1.53935324e-08
2.314804123e-08
-1.69018683e-08
2.6843469e-08
-1.84670003e-08
3.086579583e-08
-2.009044782e-08
3.522726895e-08
-2.177317068e-08
3.99402148e-08
-2.351556451e-08
4.501691449e-08
-2.531747776e-08
5.046948225e-08
-2.717825858e-08
5.630975227e-08
-2.909684275e-08
6.25491805e-08
-3.107189778e-08
6.919876937e-08
-3.310204465e-08
7.626902472e-08
-3.518618908e-08
8.376995554e-08
-3.732400962e-08
9.171112626e-08
-3.951667191e-08
1.001017655e-07
-4.176787673e-08
1.089509208e-07
-4.40854097e-08
1.182676108e-07
-4.648344978e-08
1.28060835e-07
-4.89860389e-08
1.383390916e-07
-5.163232517e-08
1.49108579e-07
-5.448450448e-08
1.603683865e-07
-5.763999442e-08
1.721008904e-07
-6.125148873e-08
1.842427716e-07
-6.555666306e-08
1.966715704e-07
-7.080910567e-08
2.086178508e-07
-7.933597519e-08
2.224598616e-07
-6.579486891e-08
2.287514245e-07
-2.747954879e-07
1.485826177e-06
1.088374891e-10
-6.580515198e-10
4.35759763e-10
-1.97848143e-09
9.823881909e-10
-3.308674019e-09
1.751473902e-09
-4.654860361e-09
2.746847797e-09
-6.0232826e-09
3.973395573e-09
-7.420077763e-09
5.437027148e-09
-8.851201313e-09
7.144638438e-09
-1.03223682e-08
9.10406419e-09
-1.183899807e-08
1.132402128e-08
-1.340616082e-08
1.381404201e-08
-1.502852149e-08
1.658439715e-08
-1.671028465e-08
1.964600855e-08
-1.845513931e-08
2.301035114e-08
-2.026620606e-08
2.668934498e-08
-2.214598896e-08
3.069523749e-08
-2.409633481e-08
3.504047731e-08
-2.611840464e-08
3.973758123e-08
-2.821266223e-08
4.479899638e-08
-3.037888637e-08
5.023696033e-08
-3.261621565e-08
5.606336245e-08
-3.492323763e-08
6.228960987e-08
-3.729813763e-08
6.89265012e-08
-3.973892808e-08
7.598410938e-08
-4.224378901e-08
8.347167183e-08
-4.481156348e-08
9.139747809e-08
-4.744246924e-08
9.976872735e-08
-5.013911674e-08
1.085912956e-07
-5.290796833e-08
1.178692847e-07
-5.576142896e-08
1.276040978e-07
-5.872084176e-08
1.377925225e-07
-6.182073927e-08
1.48422866e-07
-6.511483701e-08
1.594683614e-07
-6.868547866e-08
1.708697807e-07
-7.265289645e-08
1.825035648e-07
-7.71904353e-08
1.94187072e-07
-8.24926006e-08
2.050545831e-07
-9.020347394e-08
2.191178225e-07
-7.985809526e-08
2.180141457e-07
-2.738115921e-07
1.719868758e-06
1.078654821e-10
-7.659168122e-10
4.318643343e-10
-2.302479719e-09
9.736300143e-10
-3.85043877e-09
1.73594558e-09
-5.417174639e-09
2.722695307e-09
-7.010030678e-09
3.93883815e-09
-8.636218599e-09
5.390376247e-09
-1.030273705e-08
7.084316732e-09
-1.201630596e-08
9.028625061e-09
-1.378330333e-08
1.123216883e-08
-1.560970117e-08
1.370465132e-08
-1.750100021e-08
1.645653432e-08
-1.946216352e-08
1.949894957e-08
-2.149755009e-08
2.284359876e-08
-2.361085043e-08
2.650264187e-08
-2.580502692e-08
3.048857421e-08
-2.808226166e-08
3.481409258e-08
-3.044391716e-08
3.949195144e-08
-3.289051492e-08
4.45348106e-08
-3.542173901e-08
4.995507525e-08
-3.803647343e-08
5.576472984e-08
-4.073288503e-08
6.197516659e-08
-4.350856684e-08
6.859700684e-08
-4.636076044e-08
7.563991011e-08
-4.928668407e-08
8.311235919e-08
-5.228400401e-08
9.102139563e-08
-5.535149678e-08
9.937225721e-08
-5.84899691e-08
1.081678249e-07
-6.170352649e-08
1.174077118e-07
-6.500130597e-08
1.270867004e-07
-6.839982009e-08
1.371919904e-07
-7.192601874e-08
1.476989067e-07
-7.562174247e-08
1.585615148e-07
-7.954807552e-08
1.6969711e-07
-8.378848016e-08
1.80957926e-07
-8.84512395e-08
1.92118457e-07
-9.365311937e-08
2.021902309e-07
-1.002752355e-07
2.158960208e-07
-9.356387224e-08
2.088488541e-07
-2.668999701e-07
1.945013454e-06
1.067191895e-10
-8.726358138e-10
4.272740266e-10
-2.623033998e-09
9.633170815e-10
-4.386480905e-09
1.717671071e-09
-6.171527352e-09
2.694281907e-09
-7.986639883e-09
3.898192198e-09
-9.840126902e-09
5.335509719e-09
-1.174005222e-08
7.013369679e-09
-1.369416322e-08
8.939888756e-09
-1.570981936e-08
1.112410964e-08
-1.779391865e-08
1.357593498e-08
-1.99528218e-08
1.630605002e-08
-2.219227448e-08
1.932583313e-08
-2.451732877e-08
2.264725348e-08
-2.6932266e-08
2.628275574e-08
-2.944052405e-08
3.02451314e-08
-3.204463186e-08
3.454737677e-08
-3.474615673e-08
3.920253783e-08
-3.754566984e-08
4.422354247e-08
-4.044273716e-08
4.962301996e-08
-4.343594409e-08
5.541310704e-08
-4.652296495e-08
6.160523915e-08
-4.970069144e-08
6.82099218e-08
-5.296543525e-08
7.523647178e-08
-5.631322586e-08
8.269270923e-08
-5.974023296e-08
9.058456681e-08
-6.324334551e-08
9.891555484e-08
-6.682094796e-08
1.076859809e-07
-7.047394306e-08
1.168917403e-07
-7.420705554e-08
1.265224163e-07
-7.803048592e-08
1.365582984e-07
-8.19618903e-08
1.469654807e-07
-8.602891398e-08
1.576874588e-07
-9.027004252e-08
1.686333662e-07
-9.473437615e-08
1.796569842e-07
-9.947484577e-08
1.905379333e-07
-1.045340563e-07
2.002722964e-07
-1.100095864e-07
2.128924559e-07
-1.06184019e-07
2.01137086e-07
-2.553016662e-07
2.162538484e-06
1.053963868e-10
-9.780320146e-10
4.219799331e-10
-2.939616993e-09
9.514277002e-10
-4.915927764e-09
1.696609055e-09
-6.916707445e-09
2.661539871e-09
-8.951569085e-09
3.851356815e-09
-1.102994188e-08
5.272286553e-09
-1.316097964e-08
6.93160895e-09
-1.535348295e-08
8.837612192e-09
-1.761581958e-08
1.099953832e-08
-1.995584141e-08
1.342751791e-08
-2.238079768e-08
1.613249274e-08
-2.489724525e-08
1.912612545e-08
-2.751095708e-08
2.242069522e-08
-3.022683103e-08
2.602897863e-08
-3.304880237e-08
2.996411527e-08
-3.597976307e-08
3.423945735e-08
-3.902149303e-08
3.886840303e-08
-4.217460941e-08
4.386421302e-08
-4.54385407e-08
4.923980956e-08
-4.881153383e-08
5.500755585e-08
-5.229070411e-08
6.117901225e-08
-5.587214038e-08
6.776466228e-08
-5.955107748e-08
7.477359564e-08
-6.332215108e-08
8.221312484e-08
-6.71797537e-08
9.008829941e-08
-7.111851128e-08
9.840125996e-08
-7.513389938e-08
1.071503013e-07
-7.922297497e-08
1.163285385e-07
-8.338528297e-08
1.259219036e-07
-8.762384093e-08
1.359062161e-07
-9.194619237e-08
1.46242365e-07
-9.636505209e-08
1.568695905e-07
-1.008972569e-07
1.676967488e-07
-1.055615231e-07
1.785905438e-07
-1.103686292e-07
1.893891464e-07
-1.153326468e-07
1.993821484e-07
-1.200025761e-07
2.135647559e-07
-1.203666139e-07
1.953491404e-07
-2.372619402e-07
2.374294437e-06
1.038943609e-10
-1.081926192e-09
4.159710856e-10
-3.251693173e-09
9.379361733e-10
-5.437891953e-09
1.672711921e-09
-7.651481946e-09
2.624392172e-09
-9.903247739e-09
3.798217819e-09
-1.220376558e-08
5.200547346e-09
-1.456330687e-08
6.838821491e-09
-1.699175446e-08
8.721519899e-09
-1.9498515e-08
1.085810808e-08
-2.209242626e-08
1.325897318e-08
-2.47816591e-08
1.593534705e-08
-2.75736151e-08
1.889921541e-08
-3.047482107e-08
2.216321167e-08
-3.349082258e-08
2.57404942e-08
-3.662607985e-08
2.964460635e-08
-3.988386983e-08
3.388931778e-08
-4.326619873e-08
3.848844638e-08
-4.677373193e-08
4.345565966e-08
-5.040574757e-08
4.880425404e-08
-5.416012146e-08
5.454690933e-08
-5.803335232e-08
6.069541342e-08
-6.202063705e-08
6.726034959e-08
-6.611600589e-08
7.425073238e-08
-7.031252579e-08
8.167356832e-08
-7.460258121e-08
8.953331463e-08
-7.897824885e-08
9.78311513e-08
-8.343172697e-08
1.065639943e-07
-8.795580856e-08
1.157231529e-07
-9.254443184e-08
1.25292399e-07
-9.719307706e-08
1.352451942e-07
-1.018989772e-07
1.455406355e-07
-1.066604828e-07
1.561182425e-07
-1.114748529e-07
1.668912962e-07
-1.163345655e-07
1.777398935e-07
-1.212172149e-07
1.885466727e-07
-1.26139414e-07
1.988325125e-07
-1.302884038e-07
2.143588552e-07
-1.35892944e-07
1.908205302e-07
-2.139231036e-07
2.581471291e-06
1.022099773e-10
-1.184135988e-09
4.092348328e-10
-3.558717491e-09
9.228133147e-10
-5.951469548e-09
1.645926265e-09
-8.374593666e-09
2.582752985e-09
-1.084007288e-08
3.738648297e-09
-1.335965897e-08
5.120114922e-09
-1.594477123e-08
6.734770168e-09
-1.860640709e-08
8.591304648e-09
-2.135504652e-08
1.069943117e-08
-2.420054948e-08
1.30698221e-08
-2.715204638e-08
1.571403334e-08
-3.021782235e-08
1.864441344e-08
-3.340519684e-08
2.187399599e-08
-3.672040045e-08
2.541637373e-08
-4.016845257e-08
2.928555317e-08
-4.375304391e-08
3.349578811e-08
-4.747642797e-08
3.806139054e-08
-5.133932832e-08
4.299651758e-08
-5.534086825e-08
4.831493242e-08
-5.947852959e-08
5.402973595e-08
-6.37481488e-08
6.015306422e-08
-6.814395794e-08
6.669574394e-08
-7.265867791e-08
7.366689306e-08
-7.728366688e-08
8.107344592e-08
-8.200912571e-08
8.891958376e-08
-8.682437801e-08
9.72059547e-08
-9.171808891e-08
1.059287413e-07
-9.66785858e-08
1.150783611e-07
-1.01694042e-07
1.246377162e-07
-1.067524222e-07
1.345797694e-07
-1.118410202e-07
1.448643069e-07
-1.169450097e-07
1.554339861e-07
-1.220445213e-07
1.662097068e-07
-1.271102749e-07
1.77086064e-07
-1.320935607e-07
1.879444319e-07
-1.3699777e-07
1.98302185e-07
-1.406461448e-07
2.133405262e-07
-1.509312728e-07
1.872379755e-07
-1.880481599e-07
2.784987307e-06
1.003397436e-10
-1.284475552e-09
4.017571058e-10
-3.860134323e-09
9.060268803e-10
-6.455738449e-09
1.616193414e-09
-9.084758986e-09
2.536528296e-09
-1.176040621e-08
3.672509308e-09
-1.449563808e-08
5.030795139e-09
-1.730305482e-08
6.619194655e-09
-2.019480402e-08
8.446628321e-09
-2.318247726e-08
1.052307963e-08
-2.627699752e-08
1.285953467e-08
-2.94884978e-08
1.546790766e-08
-3.28261914e-08
1.836095058e-08
-3.629823546e-08
2.155214475e-08
-3.991158998e-08
2.505557236e-08
-4.367187521e-08
2.888576621e-08
-4.758323245e-08
3.305753591e-08
-5.164819201e-08
3.758576846e-08
-5.586755489e-08
4.24852017e-08
-6.024029516e-08
4.777016825e-08
-6.476348948e-08
5.345430693e-08
-6.94322805e-08
5.95502371e-08
-7.423988079e-08
6.606918884e-08
-7.9177622e-08
7.302057841e-08
-8.423504847e-08
8.041152147e-08
-8.940006046e-08
8.824622562e-08
-9.465907355e-08
9.652525859e-08
-9.999711293e-08
1.052446563e-07
-1.053979743e-07
1.143947459e-07
-1.10844122e-07
1.239586435e-07
-1.163163099e-07
1.339102681e-07
-1.217926346e-07
1.442118639e-07
-1.272465949e-07
1.548110504e-07
-1.32643697e-07
1.656372789e-07
-1.379364922e-07
1.765970789e-07
-1.430533494e-07
1.8757862e-07
-1.479792993e-07
1.981008057e-07
-1.511683186e-07
2.130780185e-07
-1.659084732e-07
1.848594688e-07
-1.600860057e-07
2.986037553e-06
9.827986432e-11
-1.38275524e-09
3.935226307e-10
-4.155376566e-09
8.8754196e-10
-6.949756916e-09
1.583449973e-09
-9.780665801e-09
2.485616598e-09
-1.26625713e-08
3.59965074e-09
-1.560967035e-08
4.932377886e-09
-1.863577976e-08
6.491812553e-09
-2.175423614e-08
8.287123075e-09
-2.497778489e-08
1.032858636e-08
-2.831845758e-08
1.262753035e-08
-3.178743823e-08
1.519626195e-08
-3.539491907e-08
1.804797783e-08
-3.91499471e-08
2.119665605e-08
-4.306026361e-08
2.465692568e-08
-4.713213991e-08
2.844391234e-08
-5.137021384e-08
3.257305781e-08
-5.577733188e-08
3.705991122e-08
-6.035440234e-08
4.191988978e-08
-6.510026745e-08
4.716800733e-08
-7.001160042e-08
5.281856777e-08
-7.5082834e-08
5.888481987e-08
-8.030612562e-08
6.537856786e-08
-8.56713624e-08
7.230973036e-08
-9.116620306e-08
7.968585193e-08
-9.677617379e-08
8.751147838e-08
-1.024846915e-07
9.5787504e-08
-1.082731297e-07
1.045103313e-07
-1.141207924e-07
1.136708691e-07
-1.200046503e-07
1.232533057e-07
-1.258987368e-07
1.33233592e-07
-1.317729108e-07
1.435776465e-07
-1.37590639e-07
1.542392922e-07
-1.43305332e-07
1.651577982e-07
-1.488549872e-07
1.762545996e-07
-1.541501395e-07
1.874337318e-07
-1.591584199e-07
1.982919835e-07
-1.620265584e-07
2.133774577e-07
-1.809939352e-07
1.834591531e-07
-1.304528482e-07
3.185602247e-06
9.602629538e-11
-1.478781362e-09
3.845151327e-10
-4.443864888e-09
8.673213749e-10
-7.432562308e-09
1.547628447e-09
-1.046097169e-08
2.429909731e-09
-1.354485107e-08
3.51991239e-09
-1.669967116e-08
4.824638388e-09
-1.994050357e-08
6.352320836e-09
-2.328191606e-08
8.112392876e-09
-2.673785407e-08
1.01154466e-08
-3.03215081e-08
1.237317933e-08
-3.404516743e-08
1.489832479e-08
-3.792006066e-08
1.770456611e-08
-4.195618421e-08
2.080642823e-08
-4.616212118e-08
2.421914663e-08
-5.054485342e-08
2.795850957e-08
-5.510957155e-08
3.204067177e-08
-5.985948852e-08
3.648193708e-08
-6.479566177e-08
4.129850771e-08
-6.991683185e-08
4.650619844e-08
-7.52192846e-08
5.212011395e-08
-8.069674263e-08
5.81542867e-08
-8.634029116e-08
6.462127239e-08
-9.213834058e-08
7.15317e-08
-9.807662282e-08
7.889377572e-08
-1.041382413e-07
8.671269053e-08
-1.103035978e-07
9.499001113e-08
-1.165504415e-07
1.03722943e-07
-1.228537151e-07
1.129035063e-07
-1.291852042e-07
1.225175975e-07
-1.355128183e-07
1.325439397e-07
-1.41799243e-07
1.429529267e-07
-1.479996157e-07
1.537054004e-07
-1.540577951e-07
1.647512102e-07
-1.59900786e-07
1.760276615e-07
-1.654265796e-07
1.874607687e-07
-1.705915156e-07
1.987523867e-07
-1.733181647e-07
2.141167114e-07
-1.963581986e-07
1.827337296e-07
-9.938364424e-08
3.384365848e-06
9.357479522e-11
-1.572355986e-09
3.747175331e-10
-4.725007118e-09
8.453260968e-10
-7.903170035e-09
1.50865791e-09
-1.112430234e-08
2.369293869e-09
-1.440548554e-08
3.433125248e-09
-1.776350072e-08
4.707338802e-09
-2.121471497e-08
6.200397733e-09
-2.477497251e-08
7.922015531e-09
-2.845946905e-08
9.883119981e-09
-3.228260939e-08
1.209580439e-08
-3.625784834e-08
1.457326289e-08
-4.039751533e-08
1.732970693e-08
-4.471262408e-08
2.038025941e-08
-4.921266916e-08
2.374082354e-08
-5.390541272e-08
2.742792291e-08
-5.879666576e-08
3.145851008e-08
-6.389007018e-08
3.584974153e-08
-6.918688738e-08
4.061871625e-08
-7.468580041e-08
4.578217671e-08
-8.038273857e-08
5.135617107e-08
-8.627073017e-08
5.735567588e-08
-9.233978884e-08
6.379417854e-08
-9.857683578e-08
7.068322414e-08
-1.049656607e-07
7.803190765e-08
-1.114869168e-07
8.584633318e-08
-1.181180149e-07
9.41290413e-08
-1.248331409e-07
1.028783861e-07
-1.316030509e-07
1.120878884e-07
-1.383946972e-07
1.21745579e-07
-1.451704993e-07
1.318333907e-07
-1.518870447e-07
1.423266321e-07
-1.584928469e-07
1.531936853e-07
-1.649248378e-07
1.643958353e-07
-1.711029253e-07
1.758861627e-07
-1.769168959e-07
1.876139963e-07
-1.823193378e-07
1.993818155e-07
-1.850859723e-07
2.150524817e-07
-2.120286546e-07
1.824261745e-07
-6.710035804e-08
3.582760911e-06
9.092098036e-11
-1.663276797e-09
3.641121693e-10
-4.998197807e-09
8.215157066e-10
-8.360572747e-09
1.466464774e-09
-1.176925026e-08
2.303650607e-09
-1.52426699e-08
3.339112976e-09
-1.879896128e-08
4.580230075e-09
-2.245582994e-08
6.035704931e-09
-2.623044491e-08
7.715545195e-09
-3.013930652e-08
9.631033261e-09
-3.419809434e-08
1.179468356e-08
-3.842149519e-08
1.422018343e-08
-4.282301141e-08
1.692231413e-08
-4.741475067e-08
1.991684815e-08
-5.220719872e-08
2.322041926e-08
-5.720897904e-08
2.685036159e-08
-6.242660297e-08
3.082451421e-08
-6.786421735e-08
3.5160989e-08
-7.35233564e-08
3.987789948e-08
-7.940270479e-08
4.499304889e-08
-8.549788155e-08
5.052357791e-08
-9.180125245e-08
5.648557241e-08
-9.830177628e-08
6.289363324e-08
-1.049848892e-07
6.976042089e-08
-1.118324406e-07
7.709613806e-08
-1.188226259e-07
8.490803419e-08
-1.259299028e-07
9.319987413e-08
-1.331249723e-07
1.019714197e-07
-1.403745876e-07
1.112179491e-07
-1.476412173e-07
1.209298606e-07
-1.548824013e-07
1.310924466e-07
-1.62049621e-07
1.416859859e-07
-1.690863761e-07
1.526862929e-07
-1.759251344e-07
1.640660205e-07
-1.824826422e-07
1.757980075e-07
-1.886488719e-07
1.878550468e-07
-1.943763657e-07
2.00108181e-07
-1.97339095e-07
2.16058959e-07
-2.279790024e-07
1.823269761e-07
-3.37418657e-08
3.781013107e-06
8.806038608e-11
-1.751337017e-09
3.526810294e-10
-5.262817957e-09
7.958489081e-10
-8.803739812e-09
1.420973678e-09
-1.23943739e-08
2.232858282e-09
-1.605455305e-08
3.237693676e-09
-1.980379491e-08
4.443054167e-09
-2.366118833e-08
5.857890249e-09
-2.764527856e-08
7.492515383e-09
-3.17739289e-08
9.358583463e-09
-3.606415934e-08
1.146905343e-08
-4.053196174e-08
1.383813717e-08
-4.519209142e-08
1.648122656e-08
-5.005783599e-08
1.941479534e-08
-5.514076309e-08
2.265627174e-08
-6.045045071e-08
2.622387784e-08
-6.599420402e-08
3.013643133e-08
-7.177676545e-08
3.441310699e-08
-7.780002634e-08
3.907315613e-08
-8.40627479e-08
4.413558217e-08
-9.056030123e-08
4.961877321e-08
-9.728443681e-08
5.554009436e-08
-1.042230904e-07
6.191544359e-08
-1.113602312e-07
6.875878846e-08
-1.186757779e-07
7.608164735e-08
-1.261454769e-07
8.38926179e-08
-1.337408651e-07
9.219688951e-08
-1.414292354e-07
1.009958123e-07
-1.491735015e-07
1.102865576e-07
-1.569319536e-07
1.200619458e-07
-1.646577801e-07
1.303105498e-07
-1.722982153e-07
1.410172927e-07
-1.79793109e-07
1.521647833e-07
-1.870726148e-07
1.637358383e-07
-1.940536865e-07
1.757182573e-07
-2.006312801e-07
1.881120106e-07
-2.06770108e-07
2.00882685e-07
-2.101097579e-07
2.171406993e-07
-2.442363282e-07
1.82230741e-07
7.62760425e-10
3.979143354e-06
8.498853417e-11
-1.836325387e-09
3.404060177e-10
-5.518234955e-09
7.682841264e-10
-9.231617119e-09
1.372108474e-09
-1.299819713e-08
2.156793476e-09
-1.683923662e-08
3.128681938e-09
-2.077568162e-08
4.295546689e-09
-2.482805101e-08
5.666590816e-09
-2.90163203e-08
7.252442653e-09
-3.335977802e-08
9.065141939e-09
-3.787685558e-08
1.111811325e-08
-4.258492968e-08
1.342612247e-08
-4.750009694e-08
1.600521157e-08
-5.263692106e-08
1.887260677e-08
-5.800815394e-08
2.204659541e-08
-6.362443466e-08
2.554636674e-08
-6.949397034e-08
2.939181224e-08
-7.562220562e-08
3.360328164e-08
-8.201149009e-08
3.820129296e-08
-8.866075325e-08
4.320619534e-08
-9.556519733e-08
4.86377856e-08
-1.027160205e-07
5.451488299e-08
-1.101001809e-07
6.085486825e-08
-1.177002092e-07
6.767320612e-08
-1.254941083e-07
7.498292316e-08
-1.334551861e-07
8.279414608e-08
-1.415520799e-07
9.11136467e-08
-1.497487276e-07
9.994447597e-08
-1.580043221e-07
1.092857345e-07
-1.662732031e-07
1.191325701e-07
-1.745046064e-07
1.2947654e-07
-1.826421757e-07
1.40306563e-07
-1.906231221e-07
1.516108455e-07
-1.983768872e-07
1.633803811e-07
-2.058232118e-07
1.756150711e-07
-2.128659594e-07
1.88332353e-07
-2.194873788e-07
2.015814741e-07
-2.233588678e-07
2.181214242e-07
-2.60775305e-07
1.820320827e-07
3.641373176e-08
4.177066323e-06
8.170101011e-11
-1.918026236e-09
3.272692653e-10
-5.763802732e-09
7.387801677e-10
-9.643127231e-09
1.319793403e-09
-1.357920927e-08
2.075332774e-09
-1.759477458e-08
3.011891276e-09
-2.171223839e-08
4.137440014e-09
-2.595359771e-08
5.461436875e-09
-3.034031479e-08
6.994831033e-09
-3.48931695e-08
8.750059333e-09
-3.963208088e-08
1.074103022e-08
-4.457589723e-08
1.298309053e-08
-4.974215361e-08
1.549296995e-08
-5.51467965e-08
1.828869744e-08
-6.080387714e-08
2.138948409e-08
-6.67252167e-08
2.481556717e-08
-7.292004848e-08
2.858801003e-08
-7.939464322e-08
3.27284538e-08
-8.615192829e-08
3.725881802e-08
-9.319111158e-08
4.220094994e-08
-1.00507323e-07
4.757622346e-08
-1.080912875e-07
5.340509306e-08
-1.159290437e-07
5.970661284e-08
-1.240017219e-07
6.649793325e-08
-1.322854212e-07
7.379377375e-08
-1.407510189e-07
8.160595305e-08
-1.493642512e-07
8.994295081e-08
-1.58085717e-07
9.880957941e-08
-1.668709421e-07
1.082068261e-07
-1.756704409e-07
1.181319612e-07
-1.844297324e-07
1.285790587e-07
-1.930892637e-07
1.395401591e-07
-2.015842128e-07
1.510074558e-07
-2.098441739e-07
1.629771777e-07
-2.177929233e-07
1.754568669e-07
-2.253456381e-07
1.884720774e-07
-2.325025784e-07
2.02104646e-07
-2.369914253e-07
2.187626373e-07
-2.774320279e-07
1.816556367e-07
7.304832741e-08
4.374619151e-06
7.819354881e-11
-1.996219626e-09
3.132534703e-10
-5.998862181e-09
7.072969749e-10
-1.003716996e-08
1.263954412e-09
-1.413586562e-08
1.988354759e-09
-1.831917353e-08
2.887136931e-09
-2.261101886e-08
3.968466972e-09
-2.703492573e-08
5.242056367e-09
-3.161390186e-08
6.719177463e-09
-3.637028795e-08
8.412671749e-09
-4.13255722e-08
1.033694618e-08
-4.650016838e-08
1.250795237e-08
-5.191315619e-08
1.494314272e-08
-5.758198293e-08
1.76613975e-08
-6.352212768e-08
2.068291587e-08
-6.97467305e-08
2.402906494e-08
-7.626619267e-08
2.772218085e-08
-8.308775394e-08
3.178531702e-08
-9.021505895e-08
3.624193566e-08
-9.764772441e-08
4.111554221e-08
-1.053809235e-07
4.642926436e-08
-1.134050032e-07
5.220538115e-08
-1.217051538e-07
5.846481865e-08
-1.302611523e-07
6.522660357e-08
-1.390471989e-07
7.250733149e-08
-1.480317393e-07
8.032066596e-08
-1.571775778e-07
8.867689821e-08
-1.664419411e-07
9.758262794e-08
-1.757766634e-07
1.070406345e-07
-1.851284387e-07
1.170500354e-07
-1.944391243e-07
1.27606869e-07
-2.03646088e-07
1.387053111e-07
-2.126826452e-07
1.503398341e-07
-2.21478687e-07
1.625088127e-07
-2.299618918e-07
1.752209967e-07
-2.380578117e-07
1.884998805e-07
-2.457814515e-07
2.024332816e-07
-2.509248154e-07
2.190631203e-07
-2.940603362e-07
1.809810848e-07
1.10622661e-07
4.571515627e-06
7.44621358e-11
-2.070681605e-09
2.98342271e-10
-6.222741851e-09
6.737964763e-10
-1.041262339e-08
1.204520622e-09
-1.46665887e-08
1.895742261e-09
-1.90103938e-08
2.754238993e-09
-2.346951391e-08
3.788364942e-09
-2.806904969e-08
5.008080027e-09
-3.283361465e-08
6.42497787e-09
-3.778718318e-08
8.052307737e-09
-4.295289914e-08
9.904985398e-09
-4.83528428e-08
1.1999587e-08
-5.400775425e-08
1.435431944e-08
-5.99367115e-08
1.698896037e-08
-6.615676443e-08
1.992476019e-08
-7.268252582e-08
2.318429825e-08
-7.952572593e-08
2.6791287e-08
-8.669473758e-08
3.077031765e-08
-9.419408416e-08
3.514654306e-08
-1.020239441e-07
3.994529595e-08
-1.101796703e-07
4.519164492e-08
-1.186513459e-07
5.090989393e-08
-1.274233962e-07
5.712304872e-08
-1.364743002e-07
6.38522148e-08
-1.457763577e-07
7.111604878e-08
-1.552955657e-07
7.893021156e-08
-1.649917328e-07
8.730690082e-08
-1.748186223e-07
9.625451171e-08
-1.847242659e-07
1.05777496e-07
-1.946514144e-07
1.158765113e-07
-2.045381307e-07
1.265489847e-07
-2.143185523e-07
1.377902625e-07
-2.239239134e-07
1.495955779e-07
-2.332839928e-07
1.619630813e-07
-2.423293851e-07
1.748984405e-07
-2.509931606e-07
1.884144173e-07
-2.592974178e-07
2.026097374e-07
-2.651201247e-07
2.190850137e-07
-3.105338903e-07
1.799707828e-07
1.491926538e-07
4.767429298e-06
7.050309003e-11
-2.14118454e-09
2.825206524e-10
-6.434758954e-09
6.382435011e-10
-1.076834548e-08
1.141425955e-09
-1.51697701e-08
1.797384872e-09
-1.966635136e-08
2.61302594e-09
-2.428515332e-08
3.596880523e-09
-2.905290231e-08
4.759147275e-09
-3.399587913e-08
6.111734232e-09
-3.913976756e-08
7.668296429e-09
-4.450945845e-08
9.444263534e-09
-5.012880672e-08
1.145685107e-08
-5.602033828e-08
1.37250479e-08
-6.220490451e-08
1.62695719e-08
-6.870128431e-08
1.911278593e-08
-7.552573542e-08
2.227856399e-08
-8.269149925e-08
2.579210061e-08
-9.020826915e-08
2.967965529e-08
-9.80816335e-08
3.396822688e-08
-1.0631251e-07
3.86851548e-08
-1.148965923e-07
4.385764863e-08
-1.238238335e-07
4.951225262e-08
-1.330779936e-07
5.567427186e-08
-1.426363127e-07
6.236711005e-08
-1.524691888e-07
6.961168166e-08
-1.6254013e-07
7.742580544e-08
-1.728058489e-07
8.58236847e-08
-1.832164936e-07
9.481551821e-08
-1.937160912e-07
1.044073084e-07
-2.042431961e-07
1.14600949e-07
-2.147317625e-07
1.25394697e-07
-2.251122913e-07
1.367841687e-07
-2.353133758e-07
1.487640388e-07
-2.452638533e-07
1.613306002e-07
-2.548959367e-07
1.744854866e-07
-2.641480368e-07
1.882317283e-07
-2.730436491e-07
2.026867959e-07
-2.795751816e-07
2.188739339e-07
-3.267191806e-07
1.786367295e-07
1.888477277e-07
4.962043469e-06
6.631323156e-11
-2.207497619e-09
2.657754901e-10
-6.63422076e-09
6.006069274e-10
-1.110317617e-08
1.074611091e-09
-1.564377322e-08
1.693181911e-09
-2.028492084e-08
2.463338802e-09
-2.505530858e-08
3.393775023e-09
-2.99833366e-08
4.494913108e-09
-3.509701498e-08
5.778962942e-09
-4.042381486e-08
7.259977265e-09
-4.599046993e-08
8.953898626e-09
-5.182272493e-08
1.087859074e-08
-5.794502695e-08
1.305384645e-08
-6.438015646e-08
1.550136253e-08
-7.114879633e-08
1.824467261e-08
-7.826904114e-08
2.1309027e-08
-8.575584898e-08
2.472120998e-08
-9.362044717e-08
2.850928483e-08
-1.018697031e-07
3.270226022e-08
-1.105054799e-07
3.732967352e-08
-1.195239998e-07