/*--------------------------------*- C++ -*----------------------------------*\
| =========                 |                                                 |
| \\      /  F ield         | OpenFOAM: The Open Source CFD Toolbox           |
|  \\    /   O peration     | Version:  v1912                                 |
|   \\  /    A nd           | Website:  www.openfoam.com                      |
|    \\/     M anipulation  |                                                 |
\*---------------------------------------------------------------------------*/
FoamFile
{
    version     2.0;
    format      ascii;
    class       surfaceScalarField;
    location    "0.4";
    object      phi.gas;
}
// * * * * * * * * * * * * * * * * * * * * * * * * * * * * * * * * * * * * * //

dimensions      [0 3 -1 0 0 0 0];
oriented        oriented;


internalField   nonuniform List<scalar> 
9440
(
1.075196669e-10
7.452128804e-09
4.323157412e-10
2.23541696e-08
9.757443606e-10
3.725487699e-08
1.740269263e-09
5.215310598e-08
2.729388248e-09
6.704784404e-08
3.947573888e-09
8.193811176e-08
5.400242372e-09
9.68229658e-08
7.093708027e-09
1.117015079e-07
9.035130414e-09
1.265728925e-07
1.123245274e-08
1.414363355e-07
1.369433204e-08
1.562911225e-07
1.643006078e-08
1.711366171e-07
1.944947979e-08
1.859722701e-07
2.276288314e-08
2.007976271e-07
2.638091615e-08
2.156123356e-07
3.031446803e-08
2.304161506e-07
3.457456184e-08
2.452089371e-07
3.917224521e-08
2.599906695e-07
4.411848698e-08
2.747614263e-07
4.942408657e-08
2.895213768e-07
5.509960661e-08
3.042707591e-07
6.115534216e-08
3.190098432e-07
6.760134747e-08
3.337388744e-07
7.444755043e-08
3.48457986e-07
8.170399917e-08
3.631670685e-07
8.938131158e-08
3.778655678e-07
9.74914383e-08
3.925521731e-07
1.060489207e-07
4.072243246e-07
1.150729493e-07
4.218774157e-07
1.245907514e-07
4.365034676e-07
1.346432609e-07
4.510888536e-07
1.452948383e-07
4.656102552e-07
1.566505215e-07
4.800271458e-07
1.688871097e-07
4.942679082e-07
1.823139255e-07
5.082009403e-07
1.973526793e-07
5.217038971e-07
2.160782525e-07
5.332279609e-07
2.269934114e-07
5.556148116e-07
3.74598643e-07
4.140108349e-07
9.634591892e-07
1.10890674e-10
6.825689354e-09
4.440436866e-10
2.047440197e-08
1.001311714e-09
3.41199352e-08
1.785302224e-09
4.776036673e-08
2.799679256e-09
6.139364588e-08
4.049121071e-09
7.501777504e-08
5.53929235e-09
8.863082484e-08
7.276801588e-09
1.022309532e-07
9.26915027e-09
1.158164214e-07
1.152467267e-08
1.29385612e-07
1.405246831e-08
1.42937045e-07
1.686232568e-08
1.564693947e-07
1.996463707e-08
1.69981507e-07
2.337030598e-08
1.834724158e-07
2.709064795e-08
1.969413556e-07
3.113728673e-08
2.103877722e-07
3.552204815e-08
2.238113279e-07
4.025685569e-08
2.372118988e-07
4.535363266e-08
2.50589563e-07
5.082421851e-08
2.639445741e-07
5.668030918e-08
2.772773144e-07
6.293343574e-08
2.905882206e-07
6.959500162e-08
3.038776686e-07
7.667640749e-08
3.171457999e-07
8.418930809e-08
3.303922581e-07
9.214606658e-08
3.436157915e-07
1.0056051e-07
3.568136407e-07
1.094491513e-07
3.699805812e-07
1.188331469e-07
3.831073915e-07
1.287414471e-07
3.961783386e-07
1.392159224e-07
4.091669292e-07
1.503198487e-07
4.220285121e-07
1.62152174e-07
4.346869891e-07
1.748721526e-07
4.470105953e-07
1.887530746e-07
4.58754292e-07
2.042841534e-07
4.695742391e-07
2.233358768e-07
4.765849496e-07
2.356656577e-07
5.044360032e-07
2.91459005e-07
3.052123375e-07
1.245023593e-06
1.106374272e-10
6.745580927e-09
4.430203184e-10
2.023366167e-08
9.988431297e-10
3.371686576e-08
1.780780645e-09
4.7192281e-08
2.792537137e-09
6.065684417e-08
4.038828212e-09
7.410754222e-08
5.525357567e-09
8.754145812e-08
7.258777032e-09
1.009558017e-07
9.246636656e-09
1.143479361e-07
1.149732657e-08
1.277154038e-07
1.402000883e-08
1.410559525e-07
1.682454045e-08
1.54367561e-07
1.992138832e-08
1.676484653e-07
2.33215358e-08
1.808971819e-07
2.703638243e-08
1.941125287e-07
3.107763802e-08
2.072936406e-07
3.545721379e-08
2.204399777e-07
4.018711394e-08
2.335513227e-07
4.527933233e-08
2.466277641e-07
5.074576079e-08
2.596696573e-07
5.659811828e-08
2.726775582e-07
6.28479131e-08
2.856521157e-07
6.950645554e-08
2.985939064e-07
7.658494557e-08
3.115031859e-07
8.409467107e-08
3.243795165e-07
9.204736791e-08
3.372212072e-07
1.004558194e-07
3.500244641e-07
1.093348112e-07
3.627820776e-07
1.1870262e-07
3.7548136e-07
1.285833053e-07
3.881008286e-07
1.390102181e-07
4.006047449e-07
1.50031335e-07
4.129338962e-07
1.617173096e-07
4.249895956e-07
1.741735413e-07
4.366054505e-07
1.875543908e-07
4.474878051e-07
2.020397881e-07
4.572655891e-07
2.18247121e-07
4.626306299e-07
2.308937383e-07
4.928314281e-07
2.433691465e-07
2.774546176e-07
1.522769469e-06
1.101723313e-10
6.633579413e-09
4.411904297e-10
1.989723135e-08
9.946772544e-10
3.315437195e-08
1.77332803e-09
4.640101777e-08
2.780885627e-09
5.963307372e-08
4.022110384e-09
7.284650506e-08
5.502757543e-09
8.603740027e-08
7.229538334e-09
9.920201327e-08
9.210071217e-09
1.123367999e-07
1.145282386e-08
1.254384532e-07
1.396704547e-08
1.385039392e-07
1.676268972e-08
1.515305317e-07
1.985032885e-08
1.645158477e-07
2.324105898e-08
1.77457879e-07
2.69463977e-08
1.903550214e-07
3.097817508e-08
2.032060965e-07
3.534842037e-08
2.160103644e-07
4.006924723e-08
2.287675227e-07
4.515274162e-08
2.414776868e-07
5.061085789e-08
2.541413436e-07
5.645533032e-08
2.667592694e-07
6.269761016e-08
2.793323968e-07
6.934884128e-08
2.918616119e-07
7.641989174e-08
3.043474492e-07
8.392146575e-08
3.167896399e-07
9.186432737e-08
3.29186441e-07
1.002596776e-07
3.415336322e-07
1.091197387e-07
3.538229982e-07
1.184586072e-07
3.660399986e-07
1.282934267e-07
3.781601326e-07
1.386458698e-07
3.901431735e-07
1.495437003e-07
4.019238744e-07
1.610215703e-07
4.133967387e-07
1.731184967e-07
4.243911272e-07
1.858648214e-07
4.34622173e-07
1.992354825e-07
4.437753811e-07
2.128688198e-07
4.488772699e-07
2.247301908e-07
4.78407157e-07
2.211274028e-07
2.636339058e-07
1.779367321e-06
1.09540442e-10
6.524135923e-09
4.3867361e-10
1.956848314e-08
9.889957791e-10
3.260470173e-08
1.763220566e-09
4.562770256e-08
2.76513164e-09
5.863233504e-08
3.99954355e-09
7.161352936e-08
5.472277274e-09
8.456636797e-08
7.190121481e-09
9.748613718e-08
9.160784388e-09
1.103683732e-07
1.13928361e-08
1.232089072e-07
1.389564112e-08
1.360039104e-07
1.667928112e-08
1.487499391e-07
1.975446797e-08
1.614439794e-07
2.313244736e-08
1.740834886e-07
2.682489365e-08
1.866664331e-07
3.084379672e-08
1.991913181e-07
3.520134287e-08
2.116572061e-07
3.990979176e-08
2.240637206e-07
4.498135289e-08
2.364110263e-07
5.042806567e-08
2.486997797e-07
5.626168853e-08
2.609310377e-07
6.249360407e-08
2.731061091e-07
6.913474826e-08
2.85226328e-07
7.619557335e-08
2.972927149e-07
8.368605543e-08
3.093054811e-07
9.161575704e-08
3.212633031e-07
9.999394913e-08
3.331622612e-07
1.088297834e-07
3.44994272e-07
1.181324671e-07
3.567447571e-07
1.279113039e-07
3.683891442e-07
1.381752525e-07
3.798875855e-07
1.489311869e-07
3.911769674e-07
1.601791707e-07
4.021586752e-07
1.719030018e-07
4.126784627e-07
1.840412769e-07
4.224966273e-07
1.96476384e-07
4.313571498e-07
2.084353694e-07
4.369316707e-07
2.206842371e-07
4.645443271e-07
2.080800014e-07
2.559072879e-07
2.024222514e-06
1.087376642e-10
6.415374476e-09
4.354715929e-10
1.924179018e-08
9.817907715e-10
3.205845836e-08
1.750434173e-09
4.48591618e-08
2.745231884e-09
5.763767219e-08
3.971062342e-09
7.038786718e-08
5.433826036e-09
8.310380759e-08
7.140406616e-09
9.577979668e-08
9.098623172e-09
1.084104352e-07
1.131717296e-08
1.209906761e-07
1.380556403e-08
1.335158793e-07
1.657403771e-08
1.459818676e-07
1.963348047e-08
1.583849813e-07
2.299532552e-08
1.707221304e-07
2.667144426e-08
1.829908419e-07
3.067402833e-08
1.951892996e-07
3.501546338e-08
2.073163713e-07
3.970819627e-08
2.193716178e-07
4.476459797e-08
2.313552787e-07
5.019682488e-08
2.43268224e-07
5.601668205e-08
2.551118612e-07
6.223549199e-08
2.668879817e-07
6.886397206e-08
2.785985246e-07
7.591212241e-08
2.902452294e-07
8.338912283e-08
3.0182913e-07
9.1303229e-08
3.133498316e-07
9.966164131e-08
3.248044759e-07
1.084702866e-07
3.361862628e-07
1.177333865e-07
3.474823323e-07
1.274525591e-07
3.586707349e-07
1.376249371e-07
3.697161343e-07
1.482393548e-07
3.805637544e-07
1.592698311e-07
3.911298434e-07
1.706583099e-07
4.012923242e-07
1.822829096e-07
4.108754259e-07
1.939666242e-07
4.196810556e-07
2.048338493e-07
4.260610395e-07
2.110906425e-07
4.504562087e-07
1.905979096e-07
2.560445328e-07
2.25859189e-06
1.077628292e-10
6.307589503e-09
4.315822803e-10
1.891803408e-08
9.730509832e-10
3.151710001e-08
1.734941531e-09
4.4097422e-08
2.721138051e-09
5.665167237e-08
3.936593079e-09
6.917265624e-08
5.387300283e-09
8.165339371e-08
7.080255576e-09
9.408718597e-08
9.023409852e-09
1.064676788e-07
1.122561216e-08
1.187889269e-07
1.369654255e-08
1.310454589e-07
1.644663413e-08
1.432323441e-07
1.948698389e-08
1.553452583e-07
2.282925184e-08
1.673805476e-07
2.648554889e-08
1.793352871e-07
3.046831334e-08
1.912073321e-07
3.479017672e-08
2.029953557e-07
3.946382006e-08
2.146988679e-07
4.450182182e-08
2.263182092e-07
4.991649878e-08
2.3785451e-07
5.571974134e-08
2.493096028e-07
6.192284409e-08
2.606858738e-07
6.853633015e-08
2.719860333e-07
7.556976429e-08
2.832127788e-07
8.303154324e-08
2.943683138e-07
9.092863807e-08
3.054536709e-07
9.926624048e-08
3.164677753e-07
1.08047221e-07
3.274061536e-07
1.172712329e-07
3.382591721e-07
1.269331695e-07
3.490096536e-07
1.370204391e-07
3.596297639e-07
1.475087096e-07
3.700764733e-07
1.583525999e-07
3.802871354e-07
1.694702677e-07
3.901762253e-07
1.807149945e-07
3.996327057e-07
1.918667594e-07
4.085358759e-07
2.019214068e-07
4.159990563e-07
2.08443772e-07
4.36751472e-07
1.812439237e-07
2.632967799e-07
2.483992063e-06
1.066142449e-10
6.200947691e-09
4.269993961e-10
1.859771262e-08
9.627592096e-10
3.098144846e-08
1.716707715e-09
4.334362111e-08
2.692791452e-09
5.567578136e-08
3.8960476e-09
6.796963963e-08
5.332576607e-09
8.021715323e-08
7.009503719e-09
9.241059872e-08
8.93493238e-09
1.045426438e-07
1.111788806e-08
1.166064209e-07
1.356825142e-08
1.285956034e-07
1.629668014e-08
1.40504483e-07
1.931451852e-08
1.523280483e-07
2.263369443e-08
1.640620608e-07
2.626660309e-08
1.757031272e-07
3.022597778e-08
1.872487635e-07
3.452474721e-08
1.986974455e-07
3.917588012e-08
2.100486416e-07
4.419221744e-08
2.213028183e-07
4.958629211e-08
2.324614119e-07
5.537013605e-08
2.435267541e-07
6.155507275e-08
2.545019378e-07
6.815149076e-08
2.653906065e-07
7.516858778e-08
2.761966477e-07
8.261406657e-08
2.869237587e-07
9.049374893e-08
2.975748535e-07
9.881104696e-08
3.081512677e-07
1.075661903e-07
3.186517125e-07
1.167550262e-07
3.290709398e-07
1.263671327e-07
3.393980469e-07
1.363828463e-07
3.496144347e-07
1.467684058e-07
3.596911953e-07
1.574675927e-07
3.695881674e-07
1.683900325e-07
3.792539986e-07
1.793899016e-07
3.88632718e-07
1.902515519e-07
3.976776846e-07
1.999509466e-07
4.062863541e-07
2.035392249e-07
4.241510021e-07
1.711548504e-07
2.756931568e-07
2.701703207e-06
1.052896953e-10
6.095625701e-09
4.217139463e-10
1.82813535e-08
9.50893516e-10
3.045237702e-08
1.695690942e-09
4.259897097e-08
2.66012362e-09
5.471154111e-08
3.84932395e-09
6.678067889e-08
5.269512608e-09
7.879725383e-08
6.92796099e-09
9.075249203e-08
8.832945632e-09
1.026380561e-07
1.099369297e-08
1.144461286e-07
1.342031313e-08
1.26169499e-07
1.612372168e-08
1.378016531e-07
1.911554827e-08
1.493368646e-07
2.24080313e-08
1.607702853e-07
2.601389778e-08
1.72098032e-07
2.9946228e-08
1.833172659e-07
3.421830427e-08
1.944262591e-07
3.884344359e-08
2.05424443e-07
4.38348138e-08
2.163124311e-07
4.920523244e-08
2.270920077e-07
5.496694636e-08
2.377660724e-07
6.113138865e-08
2.483385292e-07
6.770890575e-08
2.588141056e-07
7.470844223e-08
2.691980886e-07
8.213715968e-08
2.794959559e-07
8.999995375e-08
2.897128851e-07
9.829881128e-08
2.998531189e-07
1.070318773e-07
3.099192084e-07
1.161921249e-07
3.199110747e-07
1.257653538e-07
3.298249831e-07
1.35727261e-07
3.396524199e-07
1.460386606e-07
3.493793847e-07
1.566387707e-07
3.589873148e-07
1.674365164e-07
3.684551387e-07
1.782984405e-07
3.777688427e-07
1.890669973e-07
3.869100483e-07
1.990076578e-07
3.963236965e-07
2.043131657e-07
4.09992955e-07
1.647367278e-07
2.924585744e-07
2.913713142e-06
1.037864671e-10
5.991802468e-09
4.157148449e-10
1.796949137e-08
9.374279011e-10
2.993077154e-08
1.671843037e-09
4.186470229e-08
2.623056646e-09
5.376051908e-08
3.796306691e-09
6.56076679e-08
5.19794723e-09
7.739590278e-08
6.83541227e-09
8.911537014e-08
8.717171682e-09
1.007566969e-07
1.08526773e-08
1.123110837e-07
1.325229769e-08
1.237704029e-07
1.592724022e-08
1.351273012e-07
1.888945901e-08
1.463753046e-07
2.215154756e-08
1.575089246e-07
2.572661485e-08
1.685237613e-07
2.962814406e-08
1.794165995e-07
3.386983281e-08
1.901854952e-07
3.846541396e-08
2.008298421e-07
4.342845618e-08
2.11350415e-07
4.87721425e-08
2.217493809e-07
5.450902445e-08
2.320302677e-07
6.065074663e-08
2.421978827e-07
6.720773423e-08
2.522581691e-07
7.418882949e-08
2.622179928e-07
8.160085306e-08
2.720848489e-07
8.944806386e-08
2.81866473e-07
9.773143072e-08
2.915703925e-07
1.064476454e-07
3.012034286e-07
1.155877793e-07
3.107711163e-07
1.251353385e-07
3.202772665e-07
1.35063495e-07
3.297236909e-07
1.453310373e-07
3.391107698e-07
1.558771255e-07
3.484395412e-07
1.66614638e-07
3.577151963e-07
1.774229176e-07
3.669569002e-07
1.881880139e-07
3.761434984e-07
1.984041027e-07
3.860804229e-07
2.006019598e-07
3.944971371e-07
1.556807535e-07
3.149267876e-07
3.12113157e-06
1.021014178e-10
5.889660124e-09
4.089892923e-10
1.766267058e-08
9.223328136e-10
2.941753475e-08
1.645109934e-09
4.114207044e-08
2.581503668e-09
5.282431568e-08
3.736867445e-09
6.445254232e-08
5.117701352e-09
7.601535835e-08
6.73161799e-09
8.750179805e-08
8.587300392e-09
9.890141814e-08
1.069444996e-08
1.102044009e-07
1.306372276e-08
1.214016638e-07
1.570665232e-08
1.324849757e-07
1.863555738e-08
1.434470765e-07
2.186343295e-08
1.542818003e-07
2.540382292e-08
1.649841968e-07
2.927067315e-08
1.755506471e-07
3.347816352e-08
1.859789706e-07
3.804051738e-08
1.962685149e-07
4.297178711e-08
2.064202227e-07
4.828561382e-08
2.164366685e-07
5.3994958e-08
2.263220569e-07
6.01117961e-08
2.360821747e-07
6.66467753e-08
2.457242896e-07
7.360881348e-08
2.552569912e-07
8.100462393e-08
2.646899736e-07
8.883814449e-08
2.740337423e-07
9.710975398e-08
2.832993731e-07
1.058153373e-07
2.924981722e-07
1.149449786e-07
3.016414639e-07
1.244811847e-07
3.107406066e-07
1.343964631e-07
3.198074013e-07
1.446500612e-07
3.288554704e-07
1.551839405e-07
3.379030766e-07
1.659181101e-07
3.469773137e-07
1.767457028e-07
3.561238474e-07
1.875500811e-07
3.653350501e-07
1.978188008e-07
3.757804927e-07
1.969193992e-07
3.795195868e-07
1.493115941e-07
3.407404334e-07
3.324813317e-06
1.00231039e-10
5.789384328e-09
4.015230429e-10
1.736144617e-08
9.055755815e-10
2.89135877e-08
1.615432184e-09
4.043235748e-08
2.53536947e-09
5.190456702e-08
3.670865567e-09
6.331728311e-08
5.028578578e-09
7.465793446e-08
6.61631499e-09
8.591440741e-08
8.442990224e-09
9.707515005e-08
1.051857904e-08
1.081292854e-07
1.285405393e-08
1.19066733e-07
1.546130931e-08
1.298783392e-07
1.835306968e-08
1.405560133e-07
2.154277956e-08
1.51092868e-07
2.504447337e-08
1.614833614e-07
2.887262325e-08
1.717234349e-07
3.304196348e-08
1.818106432e-07
3.756728918e-08
1.917442699e-07
4.246322786e-08
2.015254218e-07
4.774398161e-08
2.111570944e-07
5.342303686e-08
2.206442034e-07
5.951283706e-08
2.299935733e-07
6.602441134e-08
2.392138797e-07
7.296694817e-08
2.483155463e-07
8.034730772e-08
2.573105895e-07
8.816940833e-08
2.662124442e-07
9.64334926e-08
2.750358522e-07
1.051352281e-07
2.837966832e-07
1.142645172e-07
2.925120092e-07
1.238039615e-07
3.012004528e-07
1.337268673e-07
3.098830931e-07
1.439947269e-07
3.185853396e-07
1.545541547e-07
3.273402475e-07
1.65333253e-07
3.361933454e-07
1.76236435e-07
3.452136649e-07
1.871523308e-07
3.544125823e-07
1.975678344e-07
3.653299469e-07
1.941721342e-07
3.646230794e-07
1.444112642e-07
3.687670624e-07
3.526013707e-06
9.817151103e-11
5.691164583e-09
3.933006159e-10
1.706638479e-08
8.871208025e-10
2.841987132e-08
1.582745511e-09
3.973687426e-08
2.484551169e-09
5.10029477e-08
3.598148994e-09
6.220392032e-08
4.930366206e-09
7.332600557e-08
6.489217593e-09
8.435590276e-08
8.283869366e-09
9.528090893e-08
1.032459281e-08
1.060890421e-07
1.262270546e-08
1.167691756e-07
1.519049752e-08
1.273111825e-07
1.804114109e-08
1.377060893e-07
2.118857983e-08
1.479462361e-07
2.46473967e-08
1.580254398e-07
2.843265733e-08
1.67939157e-07
3.255972736e-08
1.776846396e-07
3.704406132e-08
1.872610788e-07
4.190096107e-08
1.9666973e-07
4.714530193e-08
2.059140105e-07
5.27912238e-08
2.149995658e-07
5.885178364e-08
2.23934297e-07
6.533856369e-08
2.327283475e-07
7.226122788e-08
2.413940509e-07
7.96270308e-08
2.499458252e-07
8.744018541e-08
2.584001319e-07
9.570120815e-08
2.667753998e-07
1.044060662e-07
2.75092031e-07
1.135451607e-07
2.833726436e-07
1.231020608e-07
2.916426519e-07
1.330519647e-07
2.999314785e-07
1.433598568e-07
3.082747162e-07
1.539782989e-07
3.167177418e-07
1.648448491e-07
3.253209901e-07
1.758782855e-07
3.341718554e-07
1.869817662e-07
3.433000648e-07
1.977175765e-07
3.545539864e-07
1.92217629e-07
3.496143978e-07
1.407062368e-07
3.984495547e-07
3.725705726e-06
9.591875705e-11
5.595194489e-09
3.843054997e-10
1.677806549e-08
8.669307378e-10
2.793734773e-08
1.546981416e-09
3.905696232e-08
2.42893905e-09
5.012117349e-08
3.518555308e-09
6.111453659e-08
4.822836502e-09
7.202201131e-08
6.350019017e-09
8.282906753e-08
8.109537207e-09
9.352180473e-08
1.011198112e-08
1.040870855e-07
1.236904142e-08
1.145126824e-07
1.489343884e-08
1.24787438e-07
1.769883547e-08
1.349014367e-07
2.0799725e-08
1.448461856e-07
2.421129922e-08
1.546148019e-07
2.79492878e-08
1.642022019e-07
3.202976928e-08
1.736052853e-07
3.646895102e-08
1.828231111e-07
4.128291553e-08
1.918570546e-07
4.64873318e-08
2.007109416e-07
5.209712956e-08
2.093911504e-07
5.812613428e-08
2.179066791e-07
6.458665932e-08
2.262691749e-07
7.148905339e-08
2.344929275e-07
7.884119849e-08
2.425948093e-07
8.664791306e-08
2.505943331e-07
9.4910336e-08
2.585135927e-07
1.036251771e-07
2.663774006e-07
1.127838755e-07
2.742136234e-07
1.223716236e-07
2.820538834e-07
1.323662761e-07
2.899348979e-07
1.427371516e-07
2.979007687e-07
1.534436452e-07
3.060066886e-07
1.644336313e-07
3.143245033e-07
1.75641447e-07
3.229548102e-07
1.869910782e-07
3.319396386e-07
1.981479678e-07
3.4335314e-07
1.908413491e-07
3.342629636e-07
1.378143172e-07
4.295464875e-07
3.924566675e-06
9.346849406e-11
5.50167195e-09
3.745203465e-10
1.649708034e-08
8.449657296e-10
2.746700128e-08
1.508067846e-09
3.839399556e-08
2.368417529e-09
4.926100357e-08
3.431913001e-09
6.005127038e-08
4.705748283e-09
7.074846089e-08
6.198393226e-09
8.133676984e-08
7.919566319e-09
9.180104864e-08
9.880197419e-09
1.021269488e-07
1.209237747e-08
1.123010817e-07
1.456929207e-08
1.22311195e-07
1.732513587e-08
1.321463633e-07
2.03750045e-08
1.417971913e-07
2.373476079e-08
1.512560273e-07
2.742087202e-08
1.605171804e-07
3.145021552e-08
1.695771372e-07
3.583985031e-08
1.784347708e-07
4.060675235e-08
1.870915347e-07
4.576751191e-08
1.955516342e-07
5.133799224e-08
2.038221676e-07
5.733294858e-08
2.119132331e-07
6.376560678e-08
2.198379977e-07
7.064720736e-08
2.276127275e-07
7.79864887e-08
2.352567808e-07
8.57891453e-08
2.427927032e-07
9.405724452e-08
2.502461985e-07
1.027885916e-07
2.576463216e-07
1.119760648e-07
2.650258417e-07
1.216069255e-07
2.724219638e-07
1.316621552e-07
2.798776277e-07
1.421158918e-07
2.874437546e-07
1.529349693e-07
2.951827447e-07
1.640785654e-07
3.031739691e-07
1.754966797e-07
3.115269023e-07
1.871358014e-07
3.202884197e-07
1.987610822e-07
3.316813264e-07
1.897663051e-07
3.185077503e-07
1.354485574e-07
4.618667495e-07
4.123023297e-06
9.081628743e-11
5.410799323e-09
3.639271921e-10
1.622403491e-08
8.211846575e-10
2.700983945e-08
1.465929958e-09
3.774938147e-08
2.302866247e-09
4.842424253e-08
3.338042939e-09
5.901631882e-08
4.578848734e-09
6.950793702e-08
6.033997088e-09
7.988196798e-08
7.713504911e-09
9.01219603e-08
9.628661345e-09
1.002122936e-07
1.179198345e-08
1.101383516e-07
1.421715517e-08
1.198867147e-07
1.691894613e-08
1.294453709e-07
1.991310639e-08
1.388039435e-07
2.321623368e-08
1.479539311e-07
2.684560923e-08
1.568889567e-07
3.081899891e-08
1.656050189e-07
3.515441737e-08
1.741007374e-07
3.986985288e-08
1.823775868e-07
4.49829513e-08
1.904401082e-07
5.051065959e-08
1.98296091e-07
5.646882921e-08
2.059567197e-07
6.287178164e-08
2.134366814e-07
6.973184926e-08
2.207542203e-07
7.705884895e-08
2.279311934e-07
8.485958565e-08
2.34993146e-07
9.313731035e-08
2.419693174e-07
1.018911904e-07
2.488928253e-07
1.111158119e-07
2.558009954e-07
1.208007562e-07
2.627360059e-07
1.309303199e-07
2.697460269e-07
1.414835628e-07
2.768871774e-07
1.524347306e-07
2.842266006e-07
1.637543721e-07
2.918472404e-07
1.754123618e-07
2.998590664e-07
1.873782441e-07
3.083099669e-07
1.994854586e-07
3.195263937e-07
1.88851631e-07
3.023776868e-07
1.33384909e-07
4.952875232e-07
4.321298139e-06
8.795761163e-11
5.32278351e-09
3.525076895e-10
1.595954852e-08
7.955454478e-10
2.656689338e-08
1.420491e-09
3.71245622e-08
2.23216137e-09
4.761274198e-08
3.236760114e-09
5.801194005e-08
4.441875625e-09
6.830309947e-08
5.856473021e-09
7.846771537e-08
7.490879792e-09
8.848797474e-08
9.356761868e-09
9.834691928e-08
1.146708652e-08
1.080286316e-07
1.383606823e-08
1.175184447e-07
1.64790933e-08
1.268031742e-07
1.941261898e-08
1.358713712e-07
2.265404293e-08
1.44713592e-07
2.622153899e-08
1.533226808e-07
3.0133855e-08
1.616940584e-07
3.441007009e-08
1.698260086e-07
3.906930954e-08
1.77719954e-07
4.413041559e-08
1.853807115e-07
4.96115752e-08
1.928167174e-07
5.552990737e-08
2.000402141e-07
6.190101442e-08
2.070673943e-07
6.873851345e-08
2.139184749e-07
7.605351044e-08
2.20617808e-07
8.385412601e-08
2.271939088e-07
9.214499938e-08
2.336794799e-07
1.009268473e-07
2.401115399e-07
1.101961114e-07
2.465316656e-07
1.199447632e-07
2.529864753e-07
1.301603683e-07
2.595285036e-07
1.408266347e-07
2.662176721e-07
1.519246545e-07
2.731236853e-07
1.634352887e-07
2.80329642e-07
1.753436509e-07
2.879410628e-07
1.876465663e-07
2.95994506e-07
2.00271361e-07
3.068523966e-07
1.880858211e-07
2.858319785e-07
1.313975399e-07
5.2986821e-07
4.51941241e-06
8.4887917e-11
5.237835981e-09
3.402433734e-10
1.570425441e-08
7.680056733e-10
2.613921813e-08
1.3716733e-09
3.652101504e-08
2.156177095e-09
4.682840153e-08
3.127875687e-09
5.704045514e-08
4.294559919e-09
6.713668806e-08
5.665452134e-09
7.709716508e-08
7.251200006e-09
8.690264879e-08
9.063861244e-09
9.653477155e-08
1.111687523e-08
1.059762347e-07
1.342501732e-08
1.152110352e-07
1.600433104e-08
1.2422472e-07
1.887203323e-08
1.330046659e-07
2.20463874e-08
1.415403806e-07
2.554654065e-08
1.49823822e-07
2.939231951e-08
1.578497276e-07
3.36039812e-08
1.656159456e-07
3.820191855e-08
1.731237566e-07
4.320631739e-08
1.803781769e-07
4.863676757e-08
1.873882294e-07
5.451183217e-08
1.941671726e-07
6.084858156e-08
2.0073268e-07
6.76621093e-08
2.071069316e-07
7.496500456e-08
2.133167665e-07
8.276688711e-08
2.193936535e-07
9.107394565e-08
2.253737074e-07
9.988856456e-08
2.312977296e-07
1.092090854e-07
2.372113163e-07
1.190297914e-07
2.431651183e-07
1.293412398e-07
2.492153587e-07
1.40131189e-07
2.554247267e-07
1.513864444e-07
2.618638111e-07
1.630962885e-07
2.686131869e-07
1.752583789e-07
2.757698668e-07
1.878875236e-07
2.833534177e-07
2.009916747e-07
2.936953823e-07
1.872820091e-07
2.688723789e-07
1.293621483e-07
5.655843392e-07
4.71728927e-06
8.160270698e-11
5.156172715e-09
3.271159707e-10
1.545879955e-08
7.385232111e-10
2.572789257e-08
1.319399432e-09
3.594025253e-08
2.074787393e-09
4.60731693e-08
3.011199406e-09
5.61042492e-08
4.13662887e-09
6.601152489e-08
5.460558013e-09
7.577357362e-08
6.993961218e-09
8.536966697e-08
8.749299927e-09
9.477995114e-08
1.074050469e-08
1.039856589e-07
1.298293968e-08
1.129693538e-07
1.549334439e-08
1.217152073e-07
1.828974679e-08
1.302093065e-07
2.13913424e-08
1.384399899e-07
2.481833398e-08
1.463982054e-07
2.859172656e-08
1.540778843e-07
3.273307377e-08
1.614763209e-07
3.726417267e-08
1.685945458e-07
4.22067069e-08
1.754376804e-07
4.758183945e-08
1.820152583e-07
5.340976023e-08
1.883414997e-07
5.970920044e-08
1.944355249e-07
6.649691928e-08
2.003214677e-07
7.378717586e-08
2.060286524e-07
8.159125366e-08
2.115915054e-07
8.991701844e-08
2.170495401e-07
9.876858627e-08
2.224472864e-07
1.081461618e-07
2.278342293e-07
1.180461445e-07
2.332648038e-07
1.284616325e-07
2.387985033e-07
1.393835844e-07
2.44500137e-07
1.508029585e-07
2.504402496e-07
1.627145896e-07
2.566955274e-07
1.75124299e-07
2.633518565e-07
1.880557413e-07
2.704110063e-07
2.015423531e-07
2.801484989e-07
1.861926396e-07
2.516612135e-07
1.271992559e-07
6.022720409e-07
4.914772814e-06
7.809762326e-11
5.078014062e-09
3.131077401e-10
1.522384425e-08
7.070569968e-10
2.533401882e-08
1.26359354e-09
3.538382191e-08
1.987868015e-09
4.534904168e-08
2.886542412e-09
5.520577185e-08
3.967809709e-09
6.493051578e-08
5.241411273e-09
7.450030388e-08
6.718651118e-09
8.389284646e-08
8.412402672e-09
9.308672141e-08
1.033710318e-08
1.020615985e-07
1.250873049e-08
1.107985012e-07
1.494475632e-08
1.192801069e-07
1.766406977e-08
1.274910845e-07
2.068686428e-08
1.354184665e-07
2.403448192e-08
1.430520493e-07
2.772920909e-08
1.503848162e-07
3.179401876e-08
1.574133694e-07
3.625225552e-08
1.641383608e-07
4.112726314e-08
1.705649038e-07
4.644195647e-08
1.767029505e-07
5.221834366e-08
1.825676153e-07
5.847701682e-08
1.881794228e-07
6.523659289e-08
1.935644594e-07
7.251318534e-08
1.987545403e-07
8.0319895e-08
2.037870844e-07
8.866636907e-08
2.08705039e-07
9.755848204e-08
2.135566859e-07
1.069982088e-07
2.183953884e-07
1.169837929e-07
2.232792963e-07
1.275103281e-07
2.282710292e-07
1.385709983e-07
2.334372995e-07
1.501592275e-07
2.388483905e-07
1.622723361e-07
2.445771206e-07
1.749178843e-07
2.50699008e-07
1.881181645e-07
2.572008477e-07
2.019000146e-07
2.662914592e-07
1.847983399e-07
2.343621399e-07
1.247795628e-07
6.398914867e-07
5.111576722e-06
7.43685466e-11
5.003584497e-09
2.982018468e-10
1.500006151e-08
6.735678782e-10
2.495872128e-08
1.204182806e-09
3.485330399e-08
1.895298731e-09
4.465806235e-08
2.753720355e-09
5.434753661e-08
3.787833724e-09
6.389665071e-08
5.007634649e-09
7.328082708e-08
6.424755468e-09
8.247614112e-08
8.052485481e-09
9.14595152e-08
9.905779851e-09
1.002089543e-07
1.200125101e-08
1.087038254e-07
1.435713595e-08
1.169251813e-07
1.699323259e-08
1.248561296e-07
1.993079722e-08
1.324822428e-07
2.319239564e-08
1.397920052e-07
2.680170133e-08
1.467772884e-07
3.078323445e-08
1.534338423e-07
3.516203759e-08
1.597617891e-07
3.99632861e-08
1.657661002e-07
4.521183626e-08
1.714570356e-07
5.093171724e-08
1.768505239e-07
5.714559047e-08
1.819684432e-07
6.387413601e-08
1.868388396e-07
7.113550644e-08
1.914960407e-07
7.894477254e-08
1.95980526e-07
8.731345678e-08
2.003387703e-07
9.624919833e-08
2.046229188e-07
1.057556198e-07
2.088903305e-07
1.158324975e-07
2.132029894e-07
1.264763417e-07
2.176267652e-07
1.376815939e-07
2.222304447e-07
1.494426245e-07
2.27084383e-07
1.617568565e-07
2.322584086e-07
1.746291826e-07
2.378204457e-07
1.880708519e-07
2.437502576e-07
2.020995261e-07
2.521737026e-07
1.831793497e-07
2.171826411e-07
1.220603429e-07
6.784900107e-07
5.307376399e-06
7.041167977e-11
4.933112293e-09
2.8238277e-10
1.4788136e-08
6.380195306e-10
2.460314508e-08
1.141099076e-09
3.435031134e-08
1.79696586e-09
4.400232039e-08
2.612556941e-09
5.353211948e-08
3.596440942e-09
6.291300313e-08
4.758858877e-09
7.211872345e-08
6.111765152e-09
8.11236444e-08
7.668863695e-09
8.990294055e-08
9.44563364e-09
9.843284315e-08
1.145933801e-08
1.066909362e-07
1.372900803e-08
1.146565049e-07
1.627539492e-08
1.223109365e-07
1.912088103e-08
1.29638171e-07
2.22893405e-08
1.366251985e-07
2.580594211e-08
1.43262592e-07
2.969688642e-08
1.495450639e-07
3.398907204e-08
1.55472031e-07
3.870968821e-08
1.610481643e-07
4.388573539e-08
1.662839005e-07
4.95434817e-08
1.711958874e-07
5.570787902e-08
1.758073028e-07
6.240189173e-08
1.801481588e-07
6.964590849e-08
1.842553407e-07
7.745712964e-08
1.881724944e-07
8.584904941e-08
1.919497789e-07
9.483107495e-08
1.95643406e-07
1.044083471e-07
1.993149808e-07
1.145818601e-07
2.03030625e-07
1.253489665e-07
2.068598411e-07
1.367044461e-07
2.10874005e-07
1.486422782e-07
2.151442951e-07
1.611583531e-07
2.197387243e-07
1.74254022e-07
2.247196483e-07
1.879319798e-07
2.300656666e-07
2.02270832e-07
2.37789611e-07
1.816767732e-07
2.002222983e-07
1.19033763e-07
7.181905147e-07
5.501864155e-06
6.622371523e-11
4.866829028e-09
2.656368487e-10
1.458876272e-08
6.003796121e-10
2.426845399e-08
1.074280837e-09
3.387648558e-08
1.692765241e-09
4.33839474e-08
2.462888112e-09
5.276215616e-08
3.393385627e-09
6.198272795e-08
4.494729598e-09
7.101768162e-08
5.77918453e-09
7.983959072e-08
7.260861704e-09
8.842178515e-08
8.955764195e-09
9.67386062e-08
1.088181569e-08
1.047657186e-07
1.305886518e-08
1.124804832e-07
1.550865766e-08
1.19862391e-07
1.825476202e-08
1.268935574e-07
2.132244487e-08
1.335592724e-07
2.473848069e-08
1.398485973e-07
2.853088886e-08
1.457549941e-07
3.272859107e-08
1.512769694e-07
3.73609848e-08
1.564187084e-07
4.245743327e-08
1.611906695e-07
4.804668121e-08
1.656101055e-07
5.415620993e-08
1.697014377e-07
6.081151005e-08
1.734966472e-07
6.803542516e-08
1.77035247e-07
7.584746216e-08
1.803641958e-07
8.426319895e-08
1.835375573e-07
9.329382776e-08
1.866159081e-07
1.029458933e-07
1.896654801e-07
1.132213169e-07
1.927570112e-07
1.241177622e-07
1.959642578e-07
1.356294907e-07
1.993620231e-07
1.477488111e-07
2.030234806e-07
1.604683984e-07
2.070164094e-07
1.73784867e-07
2.113991704e-07
1.876940952e-07
2.161509327e-07
2.022540263e-07
2.231459658e-07
1.796697998e-07
1.834287222e-07
1.157263703e-07
7.591270603e-07
5.694754076e-06
6.180192475e-11
4.804968994e-09
2.479527455e-10
1.440264523e-08
5.606208772e-10
2.395582759e-08
1.003675261e-09
3.343349382e-08
1.582605459e-09
4.280511341e-08
2.304566656e-09
5.2040338e-08
3.178442493e-09
6.110905794e-08
4.214915314e-09