/*--------------------------------*- C++ -*----------------------------------*\
| =========                 |                                                 |
| \\      /  F ield         | OpenFOAM: The Open Source CFD Toolbox           |
|  \\    /   O peration     | Version:  v1912                                 |
|   \\  /    A nd           | Website:  www.openfoam.com                      |
|    \\/     M anipulation  |                                                 |
\*---------------------------------------------------------------------------*/
FoamFile
{
    version     2.0;
    format      ascii;
    class       volScalarField;
    location    "0.4";
    object      T.gas;
}
// * * * * * * * * * * * * * * * * * * * * * * * * * * * * * * * * * * * * * //

dimensions      [0 0 0 1 0 0 0];


internalField   nonuniform List<scalar> 
4800
(
111.5394525
111.5394525
111.5394525
111.5394525
111.5394525
111.5394525
111.5394525
111.5394525
111.5394525
111.5394525
111.5394525
111.5394525
111.5394525
111.5394525
111.5394525
111.5394525
111.5394525
111.5394525
111.5394525
111.5394525
111.5394525
111.5394525
111.5394525
111.5394525
111.5394525
111.5394525
111.5394525
111.5394525
111.5394525
111.5394525
111.5394525
111.5394525
111.5394522
111.5394555
111.5394221
111.539683
111.53817
111.5442757
111.5328975
111.5380502
111.5394418
111.5394418
111.5394418
111.5394418
111.5394418
111.5394418
111.5394418
111.5394418
111.5394418
111.5394418
111.5394418
111.5394418
111.5394418
111.5394418
111.5394418
111.5394418
111.5394417
111.5394417
111.5394417
111.5394417
111.5394417
111.5394417
111.5394417
111.5394417
111.5394416
111.5394416
111.5394416
111.5394416
111.5394415
111.5394415
111.5394415
111.5394414
111.5394412
111.5394429
111.5394247
111.5395699
111.5386975
111.5423769
111.5380876
111.5380297
111.5394311
111.5394311
111.5394311
111.5394311
111.5394311
111.5394311
111.5394311
111.5394311
111.5394311
111.5394311
111.5394311
111.539431
111.539431
111.539431
111.539431
111.539431
111.539431
111.539431
111.5394309
111.5394309
111.5394309
111.5394309
111.5394308
111.5394308
111.5394308
111.5394307
111.5394307
111.5394306
111.5394306
111.5394305
111.5394304
111.5394304
111.5394302
111.539431
111.53942
111.5395116
111.5389247
111.54161
111.5381184
111.538013
111.5394204
111.5394204
111.5394204
111.5394204
111.5394204
111.5394204
111.5394204
111.5394204
111.5394203
111.5394203
111.5394203
111.5394203
111.5394203
111.5394203
111.5394202
111.5394202
111.5394202
111.5394202
111.5394201
111.5394201
111.5394201
111.53942
111.53942
111.5394199
111.5394199
111.5394198
111.5394198
111.5394197
111.5394196
111.5394195
111.5394194
111.5394193
111.5394191
111.5394196
111.5394115
111.5394805
111.5390181
111.5412441
111.538179
111.5379935
111.5394097
111.5394097
111.5394097
111.5394097
111.5394097
111.5394097
111.5394096
111.5394096
111.5394096
111.5394096
111.5394096
111.5394096
111.5394095
111.5394095
111.5394095
111.5394094
111.5394094
111.5394094
111.5394093
111.5394093
111.5394093
111.5394092
111.5394091
111.5394091
111.539409
111.539409
111.5394089
111.5394088
111.5394087
111.5394086
111.5394084
111.5394083
111.539408
111.5394084
111.5394017
111.5394596
111.5390592
111.5410406
111.538206
111.537968
111.539399
111.539399
111.539399
111.539399
111.5393989
111.5393989
111.5393989
111.5393989
111.5393989
111.5393989
111.5393988
111.5393988
111.5393988
111.5393988
111.5393987
111.5393987
111.5393986
111.5393986
111.5393985
111.5393985
111.5393984
111.5393984
111.5393983
111.5393982
111.5393982
111.5393981
111.539398
111.5393979
111.5393977
111.5393976
111.5393974
111.5393973
111.539397
111.5393972
111.5393913
111.5394433
111.5390721
111.5409403
111.5378842
111.5379545
111.5393883
111.5393883
111.5393883
111.5393882
111.5393882
111.5393882
111.5393882
111.5393882
111.5393882
111.5393881
111.5393881
111.5393881
111.539388
111.539388
111.539388
111.5393879
111.5393879
111.5393878
111.5393878
111.5393877
111.5393876
111.5393876
111.5393875
111.5393874
111.5393873
111.5393872
111.5393871
111.539387
111.5393868
111.5393867
111.5393865
111.5393863
111.539386
111.5393861
111.5393808
111.5394289
111.5390763
111.5408721
111.537997
111.5379317
111.5393776
111.5393775
111.5393775
111.5393775
111.5393775
111.5393775
111.5393775
111.5393775
111.5393774
111.5393774
111.5393774
111.5393773
111.5393773
111.5393773
111.5393772
111.5393772
111.5393771
111.539377
111.539377
111.5393769
111.5393768
111.5393767
111.5393767
111.5393766
111.5393765
111.5393763
111.5393762
111.5393761
111.5393759
111.5393757
111.5393755
111.5393753
111.539375
111.5393751
111.5393703
111.5394151
111.5390737
111.5408454
111.5379947
111.5379076
111.5393668
111.5393668
111.5393668
111.5393668
111.5393668
111.5393668
111.5393668
111.5393667
111.5393667
111.5393667
111.5393667
111.5393666
111.5393666
111.5393665
111.5393665
111.5393664
111.5393663
111.5393663
111.5393662
111.5393661
111.539366
111.5393659
111.5393658
111.5393657
111.5393656
111.5393655
111.5393653
111.5393652
111.539365
111.5393648
111.5393646
111.5393644
111.5393641
111.539364
111.5393599
111.5394008
111.5390732
111.5408319
111.5379608
111.5378931
111.5393561
111.5393561
111.5393561
111.5393561
111.5393561
111.5393561
111.5393561
111.539356
111.539356
111.539356
111.5393559
111.5393559
111.5393558
111.5393558
111.5393557
111.5393557
111.5393556
111.5393555
111.5393554
111.5393553
111.5393552
111.5393551
111.539355
111.5393549
111.5393548
111.5393546
111.5393545
111.5393543
111.5393541
111.5393539
111.5393537
111.5393534
111.5393532
111.5393531
111.5393495
111.5393862
111.5390788
111.5407812
111.5379619
111.5378903
111.5393455
111.5393454
111.5393454
111.5393454
111.5393454
111.5393454
111.5393454
111.5393453
111.5393453
111.5393453
111.5393452
111.5393452
111.5393451
111.539345
111.539345
111.5393449
111.5393448
111.5393447
111.5393447
111.5393446
111.5393445
111.5393443
111.5393442
111.5393441
111.5393439
111.5393438
111.5393436
111.5393434
111.5393433
111.539343
111.5393428
111.5393425
111.5393423
111.5393421
111.5393391
111.5393715
111.5390847
111.5407354
111.5379818
111.5378987
111.5393348
111.5393348
111.5393347
111.5393347
111.5393347
111.5393347
111.5393347
111.5393346
111.5393346
111.5393345
111.5393345
111.5393344
111.5393344
111.5393343
111.5393342
111.5393342
111.5393341
111.539334
111.5393339
111.5393338
111.5393337
111.5393336
111.5393334
111.5393333
111.5393331
111.539333
111.5393328
111.5393326
111.5393324
111.5393322
111.5393319
111.5393317
111.5393314
111.5393312
111.5393286
111.5393569
111.5390926
111.5406825
111.5380017
111.5379182
111.5393241
111.5393241
111.5393241
111.539324
111.539324
111.539324
111.539324
111.5393239
111.5393239
111.5393238
111.5393238
111.5393237
111.5393237
111.5393236
111.5393235
111.5393234
111.5393233
111.5393232
111.5393231
111.539323
111.5393229
111.5393228
111.5393226
111.5393225
111.5393223
111.5393221
111.539322
111.5393218
111.5393215
111.5393213
111.5393211
111.5393208
111.5393205
111.5393203
111.5393182
111.5393423
111.5391017
111.5406261
111.5380252
111.5379481
111.5393134
111.5393134
111.5393134
111.5393134
111.5393133
111.5393133
111.5393133
111.5393132
111.5393132
111.5393131
111.5393131
111.539313
111.5393129
111.5393129
111.5393128
111.5393127
111.5393126
111.5393125
111.5393124
111.5393123
111.5393121
111.539312
111.5393118
111.5393117
111.5393115
111.5393113
111.5393111
111.5393109
111.5393107
111.5393105
111.5393102
111.53931
111.5393097
111.5393094
111.5393077
111.5393279
111.5391113
111.5404834
111.5380531
111.5379873
111.5393027
111.5393027
111.5393027
111.5393027
111.5393027
111.5393026
111.5393026
111.5393025
111.5393025
111.5393024
111.5393024
111.5393023
111.5393022
111.5393022
111.5393021
111.539302
111.5393019
111.5393018
111.5393016
111.5393015
111.5393014
111.5393012
111.5393011
111.5393009
111.5393007
111.5393005
111.5393003
111.5393001
111.5392999
111.5392997
111.5392994
111.5392991
111.5392988
111.5392986
111.5392972
111.5393137
111.5391213
111.5402592
111.5380818
111.5380339
111.539292
111.539292
111.539292
111.539292
111.539292
111.5392919
111.5392919
111.5392919
111.5392918
111.5392918
111.5392917
111.5392916
111.5392915
111.5392915
111.5392914
111.5392913
111.5392912
111.539291
111.5392909
111.5392908
111.5392906
111.5392905
111.5392903
111.5392901
111.5392899
111.5392898
111.5392895
111.5392893
111.5392891
111.5392888
111.5392886
111.5392883
111.539288
111.5392877
111.5392867
111.5392999
111.5391308
111.5399809
111.5381088
111.5380853
111.5392814
111.5392814
111.5392814
111.5392813
111.5392813
111.5392813
111.5392812
111.5392812
111.5392811
111.5392811
111.539281
111.5392809
111.5392808
111.5392808
111.5392807
111.5392806
111.5392804
111.5392803
111.5392802
111.53928
111.5392799
111.5392797
111.5392796
111.5392794
111.5392792
111.539279
111.5392788
111.5392785
111.5392783
111.539278
111.5392778
111.5392775
111.5392772
111.5392769
111.5392761
111.5392864
111.5391392
111.539673
111.5381323
111.5381388
111.5392707
111.5392707
111.5392707
111.5392707
111.5392706
111.5392706
111.5392706
111.5392705
111.5392705
111.5392704
111.5392703
111.5392702
111.5392702
111.5392701
111.53927
111.5392698
111.5392697
111.5392696
111.5392695
111.5392693
111.5392692
111.539269
111.5392688
111.5392686
111.5392684
111.5392682
111.539268
111.5392678
111.5392675
111.5392673
111.539267
111.5392667
111.5392664
111.5392661
111.5392656
111.5392732
111.539147
111.539351
111.5381514
111.5381918
111.5392601
111.5392601
111.53926
111.53926
111.53926
111.53926
111.5392599
111.5392599
111.5392598
111.5392597
111.5392597
111.5392596
111.5392595
111.5392594
111.5392593
111.5392592
111.539259
111.5392589
111.5392587
111.5392586
111.5392584
111.5392583
111.5392581
111.5392579
111.5392577
111.5392574
111.5392572
111.539257
111.5392567
111.5392565
111.5392562
111.5392559
111.5392556
111.5392553
111.5392549
111.5392602
111.5391542
111.5390259
111.5381662
111.538242
111.5392494
111.5392494
111.5392494
111.5392494
111.5392493
111.5392493
111.5392493
111.5392492
111.5392491
111.5392491
111.539249
111.5392489
111.5392488
111.5392487
111.5392486
111.5392485
111.5392483
111.5392482
111.539248
111.5392479
111.5392477
111.5392475
111.5392473
111.5392471
111.5392469
111.5392467
111.5392465
111.5392462
111.539246
111.5392457
111.5392454
111.5392452
111.5392449
111.5392446
111.5392443
111.5392475
111.5391607
111.5387048
111.5381769
111.5382875
111.5392388
111.5392388
111.5392388
111.5392387
111.5392387
111.5392387
111.5392386
111.5392386
111.5392385
111.5392384
111.5392383
111.5392382
111.5392381
111.539238
111.5392379
111.5392378
111.5392377
111.5392375
111.5392374
111.5392372
111.539237
111.5392368
111.5392366
111.5392364
111.5392362
111.539236
111.5392357
111.5392355
111.5392352
111.539235
111.5392347
111.5392344
111.5392341
111.5392338
111.5392336
111.5392351
111.5391662
111.538399
111.5381833
111.5383271
111.5392281
111.5392281
111.5392281
111.5392281
111.5392281
111.539228
111.539228
111.5392279
111.5392278
111.5392278
111.5392277
111.5392276
111.5392275
111.5392274
111.5392273
111.5392271
111.539227
111.5392268
111.5392267
111.5392265
111.5392263
111.5392261
111.5392259
111.5392257
111.5392255
111.5392252
111.539225
111.5392247
111.5392245
111.5392242
111.5392239
111.5392236
111.5392234
111.539223
111.5392229
111.5392229
111.539171
111.538135
111.5381852
111.5383603
111.5392175
111.5392175
111.5392175
111.5392175
111.5392174
111.5392174
111.5392173
111.5392173
111.5392172
111.5392171
111.539217
111.539217
111.5392168
111.5392167
111.5392166
111.5392165
111.5392163
111.5392162
111.539216
111.5392158
111.5392156
111.5392154
111.5392152
111.539215
111.5392148
111.5392145
111.5392143
111.539214
111.5392137
111.5392135
111.5392132
111.5392129
111.5392126
111.5392123
111.5392122
111.5392109
111.5391752
111.537874
111.5381831
111.5383872
111.5392069
111.5392069
111.5392069
111.5392069
111.5392068
111.5392068
111.5392067
111.5392067
111.5392066
111.5392065
111.5392064
111.5392063
111.5392062
111.5392061
111.539206
111.5392058
111.5392057
111.5392055
111.5392053
111.5392051
111.5392049
111.5392047
111.5392045
111.5392043
111.539204
111.5392038
111.5392035
111.5392033
111.539203
111.5392027
111.5392024
111.5392022
111.5392019
111.5392016
111.5392015
111.5391991
111.5391785
111.5376368
111.5381795
111.5384078
111.5391963
111.5391963
111.5391963
111.5391962
111.5391962
111.5391962
111.5391961
111.539196
111.539196
111.5391959
111.5391958
111.5391957
111.5391956
111.5391955
111.5391953
111.5391952
111.539195
111.5391948
111.5391947
111.5391945
111.5391943
111.5391941
111.5391938
111.5391936
111.5391934
111.5391931
111.5391928
111.5391926
111.5391923
111.539192
111.5391917
111.5391914
111.5391911
111.5391908
111.5391908
111.5391874
111.5391811
111.5374226
111.5381756
111.5384228
111.5391857
111.5391857
111.5391857
111.5391856
111.5391856
111.5391856
111.5391855
111.5391854
111.5391854
111.5391853
111.5391852
111.5391851
111.539185
111.5391848
111.5391847
111.5391845
111.5391844
111.5391842
111.539184
111.5391838
111.5391836
111.5391834
111.5391832
111.5391829
111.5391827
111.5391824
111.5391821
111.5391819
111.5391816
111.5391813
111.539181
111.5391807
111.5391804
111.5391801
111.5391801
111.539176
111.5391827
111.5372283
111.5381709
111.5384326
111.5391751
111.5391751
111.5391751
111.5391751
111.539175
111.539175
111.5391749
111.5391748
111.5391748
111.5391747
111.5391746
111.5391745
111.5391744
111.5391742
111.5391741
111.5391739
111.5391738
111.5391736
111.5391734
111.5391732
111.539173
111.5391727
111.5391725
111.5391723
111.539172
111.5391717
111.5391714
111.5391712
111.5391709
111.5391706
111.5391703
111.53917
111.5391697
111.5391694
111.5391693
111.5391647
111.5391833
111.5370514
111.5381655
111.5384379
111.5391645
111.5391645
111.5391645
111.5391645
111.5391644
111.5391644
111.5391643
111.5391643
111.5391642
111.5391641
111.539164
111.5391639
111.5391638
111.5391636
111.5391635
111.5391633
111.5391631
111.539163
111.5391628
111.5391626
111.5391623
111.5391621
111.5391619
111.5391616
111.5391613
111.5391611
111.5391608
111.5391605
111.5391602
111.5391599
111.5391596
111.5391593
111.539159
111.5391586
111.5391586
111.5391536
111.5391829
111.5368966
111.5381611
111.5384392
111.5391539
111.5391539
111.5391539
111.5391539
111.5391539
111.5391538
111.5391537
111.5391537
111.5391536
111.5391535
111.5391534
111.5391533
111.5391532
111.539153
111.5391529
111.5391527
111.5391525
111.5391524
111.5391521
111.5391519
111.5391517
111.5391515
111.5391512
111.5391509
111.5391507
111.5391504
111.5391501
111.5391498
111.5391495
111.5391492
111.5391489
111.5391485
111.5391482
111.5391479
111.5391478
111.5391427
111.5391815
111.5368734
111.538159
111.5384375
111.5391434
111.5391434
111.5391434
111.5391433
111.5391433
111.5391432
111.5391432
111.5391431
111.539143
111.5391429
111.5391428
111.5391427
111.5391426
111.5391424
111.5391423
111.5391421
111.5391419
111.5391418
111.5391415
111.5391413
111.5391411
111.5391408
111.5391406
111.5391403
111.53914
111.5391397
111.5391394
111.5391391
111.5391388
111.5391385
111.5391382
111.5391378
111.5391375
111.5391372
111.5391371
111.5391319
111.5391792
111.5368564
111.5381603
111.5384349
111.5391328
111.5391328
111.5391328
111.5391328
111.5391327
111.5391327
111.5391326
111.5391325
111.5391325
111.5391324
111.5391323
111.5391321
111.539132
111.5391319
111.5391317
111.5391316
111.5391314
111.5391312
111.539131
111.5391307
111.5391305
111.5391302
111.53913
111.5391297
111.5391294
111.5391291
111.5391288
111.5391285
111.5391281
111.5391278
111.5391275
111.5391271
111.5391268
111.5391265
111.5391263
111.5391212
111.5391761
111.5368352
111.538165
111.5384343
111.5391223
111.5391223
111.5391223
111.5391222
111.5391222
111.5391221
111.5391221
111.539122
111.5391219
111.5391218
111.5391217
111.5391216
111.5391215
111.5391213
111.5391212
111.539121
111.5391208
111.5391206
111.5391204
111.5391201
111.5391199
111.5391196
111.5391194
111.5391191
111.5391188
111.5391185
111.5391181
111.5391178
111.5391175
111.5391171
111.5391168
111.5391164
111.5391161
111.5391158
111.5391156
111.5391106
111.5391723
111.5368129
111.5381729
111.5384392
111.5391117
111.5391117
111.5391117
111.5391117
111.5391116
111.5391116
111.5391115
111.5391115
111.5391114
111.5391113
111.5391112
111.5391111
111.5391109
111.5391108
111.5391106
111.5391104
111.5391102
111.53911
111.5391098
111.5391096
111.5391093
111.5391091
111.5391088
111.5391085
111.5391082
111.5391078
111.5391075
111.5391071
111.5391068
111.5391064
111.5391061
111.5391057
111.5391054
111.539105
111.5391048
111.5391001
111.539168
111.5367821
111.5381827
111.5384529
111.5391012
111.5391012
111.5391012
111.5391012
111.5391011
111.5391011
111.539101
111.5391009
111.5391008
111.5391008
111.5391006
111.5391005
111.5391004
111.5391002
111.5391001
111.5390999
111.5390997
111.5390995
111.5390993
111.539099
111.5390988
111.5390985
111.5390982
111.5390979
111.5390976
111.5390972
111.5390969
111.5390965
111.5390961
111.5390958
111.5390954
111.539095
111.5390947
111.5390943
111.539094
111.5390898
111.5391631
111.5369127
111.5381921
111.5384786
111.5390907
111.5390907
111.5390907
111.5390906
111.5390906
111.5390906
111.5390905
111.5390904
111.5390903
111.5390902
111.5390901
111.53909
111.5390899
111.5390897
111.5390895
111.5390894
111.5390892
111.539089
111.5390887
111.5390885
111.5390882
111.5390879
111.5390876
111.5390873
111.539087
111.5390866
111.5390863
111.5390859
111.5390855
111.5390851
111.5390847
111.5390843
111.539084
111.5390836
111.5390832
111.5390795
111.5391575
111.5368864
111.5382012
111.5385176
111.5390802
111.5390802
111.5390802
111.5390801
111.5390801
111.53908
111.53908
111.5390799
111.5390798
111.5390797
111.5390796
111.5390795
111.5390794
111.5390792
111.539079
111.5390788
111.5390786
111.5390784
111.5390782
111.5390779
111.5390777
111.5390774
111.5390771
111.5390767
111.5390764
111.539076
111.5390756
111.5390753
111.5390749
111.5390745
111.539074
111.5390736
111.5390732
111.5390729
111.5390724
111.5390693
111.5391517
111.5368622
111.5382057
111.5385681
111.5390697
111.5390697
111.5390697
111.5390696
111.5390696
111.5390695
111.5390695
111.5390694
111.5390693
111.5390692
111.5390691
111.539069
111.5390689
111.5390687
111.5390685
111.5390683
111.5390681
111.5390679
111.5390677
111.5390674
111.5390671
111.5390669
111.5390665
111.5390662
111.5390658
111.5390655
111.5390651
111.5390646
111.5390642
111.5390638
111.5390634
111.539063
111.5390625
111.5390621
111.5390616
111.5390592
111.5391456
111.5368411
111.5382037
111.5386253
111.5390592
111.5390592
111.5390592
111.5390591
111.5390591
111.5390591
111.539059
111.5390589
111.5390588
111.5390587
111.5390586
111.5390585
111.5390584
111.5390582
111.539058
111.5390579
111.5390577
111.5390574
111.5390572
111.5390569
111.5390566
111.5390563
111.539056
111.5390557
111.5390553
111.5390549
111.5390545
111.539054
111.5390536
111.5390532
111.5390527
111.5390523
111.5390518
111.5390514
111.5390509
111.5390493
111.5391394
111.5368232
111.5381935
111.5386814
111.5390487
111.5390487
111.5390487
111.5390487
111.5390486
111.5390486
111.5390485
111.5390484
111.5390484
111.5390483
111.5390482
111.539048
111.5390479
111.5390477
111.5390476
111.5390474
111.5390472
111.539047
111.5390467
111.5390464
111.5390462
111.5390458
111.5390455
111.5390451
111.5390448
111.5390443
111.5390439
111.5390435
111.539043
111.5390425
111.539042
111.5390416
111.5390411
111.5390406
111.5390401
111.5390396
111.5391328
111.5368075
111.5381743
111.5387265
111.5390382
111.5390382
111.5390382
111.5390382
111.5390382
111.5390381
111.539038
111.539038
111.5390379
111.5390378
111.5390377
111.5390376
111.5390374
111.5390373
111.5390371
111.5390369
111.5390367
111.5390365
111.5390362
111.539036
111.5390357
111.5390354
111.539035
111.5390346
111.5390342
111.5390338
111.5390334
111.5390329
111.5390324
111.5390319
111.5390314
111.5390309
111.5390304
111.5390299
111.5390293
111.5390301
111.5391256
111.5367915
111.5381467
111.5387508
111.5390278
111.5390278
111.5390278
111.5390277
111.5390277
111.5390276
111.5390276
111.5390275
111.5390274
111.5390273
111.5390272
111.5390271
111.539027
111.5390268
111.5390267
111.5390265
111.5390263
111.5390261
111.5390258
111.5390255
111.5390252
111.5390249
111.5390245
111.5390242
111.5390237
111.5390233
111.5390228
111.5390223
111.5390218
111.5390213
111.5390207
111.5390202
111.5390197
111.5390191
111.5390185
111.5390209
111.5391174
111.5367743
111.5381126
111.5387474
111.5390173
111.5390173
111.5390173
111.5390173
111.5390172
111.5390172
111.5390171
111.5390171
111.539017
111.5390169
111.5390168
111.5390167
111.5390165
111.5390164
111.5390162
111.5390161
111.5390158
111.5390156
111.5390154
111.5390151
111.5390148
111.5390145
111.5390141
111.5390137
111.5390133
111.5390128
111.5390123
111.5390118
111.5390112
111.5390107
111.5390101
111.5390095
111.5390089
111.5390084
111.5390077
111.5390119
111.5391077
111.5367513
111.538074
111.5387154
111.5390069
111.5390069
111.5390069
111.5390068
111.5390068
111.5390067
111.5390067
111.5390066
111.5390066
111.5390065
111.5390064
111.5390062
111.5390061
111.539006
111.5390058
111.5390056
111.5390054
111.5390052
111.539005
111.5390047
111.5390044
111.539004
111.5390037
111.5390033
111.5390028
111.5390023
111.5390018
111.5390013
111.5390007
111.5390001
111.5389994
111.5389988
111.5389982
111.5389976
111.538997
111.5390031
111.5390971
111.5367131
111.5380325
111.5386603
111.5389964
111.5389964
111.5389964
111.5389964
111.5389964
111.5389963
111.5389963
111.5389962
111.5389961
111.538996
111.5389959
111.5389958
111.5389957
111.5389956
111.5389954
111.5389952
111.538995
111.5389948
111.5389946
111.5389943
111.538994
111.5389937
111.5389933
111.5389929
111.5389924
111.5389919
111.5389914
111.5389908
111.5389901
111.5389895
111.5389888
111.5389881
111.5389875
111.5389868
111.5389863
111.5389944
111.5390862
111.5366579
111.5379891
111.5385925
111.538986
111.538986
111.538986
111.538986
111.5389859
111.5389859
111.5389858
111.5389858
111.5389857
111.5389856
111.5389855
111.5389854
111.5389853
111.5389852
111.538985
111.5389848
111.5389847
111.5389844
111.5389842
111.5389839
111.5389836
111.5389833
111.5389829
111.5389825
111.538982
111.5389815
111.5389809
111.5389803
111.5389796
111.5389789
111.5389782
111.5389774
111.5389767
111.5389759
111.5389756
111.5389859
111.539074
111.5365727
111.5379434
111.5385234
111.5389756
111.5389756
111.5389756
111.5389755
111.5389755
111.5389755
111.5389754
111.5389754
111.5389753
111.5389752
111.5389751
111.538975
111.5389749
111.5389748
111.5389746
111.5389745
111.5389743
111.5389741
111.5389738
111.5389736
111.5389733
111.5389729
111.5389726
111.5389721
111.5389716
111.5389711
111.5389705
111.5389698
111.5389691
111.5389684
111.5389675
111.5389667
111.5389659
111.538965
111.5389649
111.5389772
111.5390652
111.5364683
111.5378936
111.5384617
111.5389652
111.5389652
111.5389651
111.5389651
111.5389651
111.5389651
111.538965
111.538965
111.5389649
111.5389648
111.5389647
111.5389646
111.5389645
111.5389644
111.5389643
111.5389641
111.5389639
111.5389637
111.5389635
111.5389633
111.538963
111.5389626
111.5389622
111.5389618
111.5389613
111.5389607
111.5389601
111.5389594
111.5389587
111.5389578
111.5389569
111.538956
111.5389551
111.5389541
111.5389542
111.5389682
111.5390623
111.5363652
111.5378379
111.5384116
111.5389547
111.5389547
111.5389547
111.5389547
111.5389547
111.5389546
111.5389546
111.5389546
111.5389545
111.5389544
111.5389544
111.5389543
111.5389542
111.5389541
111.5389539
111.5389538
111.5389536
111.5389534
111.5389532
111.5389529
111.5389527
111.5389523
111.538952
111.5389515
111.538951
111.5389504
111.5389498
111.538949
111.5389482
111.5389473
111.5389463
111.5389453
111.5389442
111.5389431
111.5389436
111.538959
111.539069
111.5362679
111.5377553
111.5383739
111.5389443
111.5389443
111.5389443
111.5389443
111.5389443
111.5389443
111.5389442
111.5389442
111.5389441
111.5389441
111.538944
111.5389439
111.5389438
111.5389437
111.5389436
111.5389434
111.5389433
111.5389431
111.5389429
111.5389427
111.5389424
111.5389421
111.5389417
111.5389413
111.5389408
111.5389402
111.5389395
111.5389387
111.5389378
111.5389368
111.5389357
111.5389346
111.5389333
111.538932
111.5389334
111.5389524
111.5390895
111.5364912
111.5377194
111.538346
111.5389339
111.5389339
111.5389339
111.5389339
111.5389339
111.5389339
111.5389338
111.5389338
111.5389337
111.5389337
111.5389336
111.5389335
111.5389335
111.5389334
111.5389333
111.5389331
111.538933
111.5389328
111.5389326
111.5389324
111.5389321
111.5389318
111.5389315
111.5389311
111.5389306
111.53893
111.5389293
111.5389284
111.5389275
111.5389264
111.5389252
111.5389238
111.5389223
111.5389212
111.5389278
111.5389612
111.5391375
111.5364696
111.5376679
111.5383259
111.5389235
111.5389235
111.5389235
111.5389235
111.5389235
111.5389235
111.5389234
111.5389234
111.5389234
111.5389233
111.5389233
111.5389232
111.5389231
111.538923
111.5389229
111.5389228
111.5389227
111.5389226
111.5389224
111.5389222
111.5389219
111.5389216
111.5389213
111.5389209
111.5389204
111.5389198
111.5389191
111.5389182
111.5389172
111.5389161
111.5389147
111.538913
111.5389115
111.5389147
111.5389398
111.5389675
111.5391025
111.5365715
111.5376232
111.5383084
111.5389132
111.5389131
111.5389131
111.5389131
111.5389131
111.5389131
111.5389131
111.538913
111.538913
111.538913
111.5389129
111.5389129
111.5389128
111.5389127
111.5389126
111.5389125
111.5389124
111.5389123
111.5389121
111.538912
111.5389117
111.5389115
111.5389112
111.5389108
111.5389103
111.5389097
111.538909
111.5389081
111.5389071
111.5389058
111.5389042
111.5389025
111.5389041
111.5389179
111.5388893
111.538434
111.5378292
111.5369516
111.5375992
111.5382965
111.5389028
111.5389028
111.5389028
111.5389027
111.5389027
111.5389027
111.5389027
111.5389027
111.5389026
111.5389026
111.5389026
111.5389025
111.5389025
111.5389024
111.5389023
111.5389023
111.5389022
111.5389021
111.5389019
111.5389018
111.5389016
111.5389013
111.5389011
111.5389007
111.5389003
111.5388997
111.538899
111.5388981
111.538897
111.5388956
111.5388941
111.5388952
111.5389022
111.5388115
111.5378972
111.5346473
111.5310796
111.5378033
111.5378526
111.5382917
111.5388924
111.5388924
111.5388924
111.5388924
111.5388923
111.5388923
111.5388923
111.5388923
111.5388923
111.5388922
111.5388922
111.5388922
111.5388921
111.5388921
111.538892
111.538892
111.5388919
111.5388918
111.5388917
111.5388916
111.5388914
111.5388912
111.538891
111.5388907
111.5388903
111.5388898
111.5388891
111.5388883
111.5388872
111.5388861
111.5388872
111.5388953
111.5388021
111.5374282
111.5293886
111.5198787
111.519511
111.5384061
111.5381494
111.5382775
111.538882
111.538882
111.538882
111.538882
111.538882
111.538882
111.5388819
111.5388819
111.5388819
111.5388819
111.5388819
111.5388819
111.5388818
111.5388818
111.5388818
111.5388817
111.5388817
111.5388816
111.5388815
111.5388815
111.5388814
111.5388812
111.538881
111.5388808
111.5388805
111.5388802
111.5388797
111.5388793
111.5388787
111.538879
111.5388836
111.5387414
111.5350993
111.5205651
111.5228618
111.5250716
111.5297077
111.5377053
111.5384452
111.5382699
111.5388719
111.5388719
111.5388719
111.538872
111.538872
111.538872
111.538872
111.538872
111.538872
111.538872
111.538872
111.538872
111.538872
111.538872
111.538872
111.538872
111.538872
111.538872
111.538872
111.538872
111.5388721
111.5388721
111.5388721
111.5388721
111.5388722
111.5388721
111.5388718
111.5388688
111.5388431
111.538592
111.5362879
111.5246653
111.5235895
111.5263153
111.5287232
111.5302657
111.5342547
111.539933
111.538474
111.5382728
111.5388573
111.5388577
111.5388576
111.5388576
111.5388575
111.5388574
111.5388572
111.5388571
111.5388569
111.5388567
111.5388565
111.5388563
111.538856
111.538856
111.5388556
111.5388551
111.5388545
111.5388535
111.5388521
111.5388496
111.5388453
111.5388374
111.538821
111.5387831
111.538684
111.5384056
111.5375565
111.5348622
111.5283659
111.5258471
111.5268072
111.5280428
111.5292644
111.5310116
111.532881
111.5340934
111.5367246
111.5383327
111.5383449
111.5382913
111.5362711
111.5363351
111.5363593
111.536368
111.5364208
111.5364315
111.5364603
111.5364977
111.5365378
111.536581
111.5366281
111.5366788
111.536733
111.5367955
111.5368502
111.5368994
111.5369384
111.5369468
111.5369116
111.5368015
111.5365924
111.5362671
111.5357761
111.5350033
111.5341197
111.5334023
111.5328045
111.5323038
111.5318745
111.5318786
111.5325591
111.5330187
111.5331698
111.534146
111.5352251
111.5361644
111.5376429
111.5379386
111.5382812
111.5383391
111.5371763
111.5371832
111.537189
111.5371859
111.5372039
111.5372075
111.537221
111.5372391
111.5372593
111.5372825
111.5373092
111.53734
111.537375
111.5374151
111.5374596
111.5375072
111.5375585
111.5376086
111.5376534
111.5376782
111.5376705
111.5376279
111.537522
111.5371989
111.5368166
111.536557
111.5363479
111.536145
111.5358756
111.5357479
111.5360114
111.5360967
111.5356466
111.535764
111.5358076
111.5373476
111.5385074
111.5385428
111.538258
111.5384425
111.5372675
111.5372697
111.5372759
111.5372803
111.5372901
111.5373005
111.537314
111.5373287
111.5373445
111.537362
111.5373816
111.5374037
111.5374285
111.537457
111.5374887
111.537525
111.537568
111.5376204
111.5376865
111.5377682
111.537868
111.5379969
111.5382099
111.5383918
111.5385372
111.5386965
111.538795
111.5387771
111.5386793
111.5386046
111.5386028
111.5384096
111.5379903
111.5368678
111.5366841
111.5379168
111.5392998
111.5397144
111.5384749
111.5386337
111.6080299
111.6146049
111.6150968
111.6132472
111.6111368
111.6094869
111.6078344
111.6062204
111.6045162
111.6026937
111.6007263
111.5985618
111.5961317
111.5933975
111.5904063
111.5871113
111.583051
111.5783222
111.5721773
111.5639574
111.5542017
111.5466623
111.5451656
111.5445897
111.5431321
111.5420612
111.5413582
111.5409451
111.5407433
111.5405983
111.5404121
111.5401815
111.5399496
111.5380283
111.5375775
111.538765
111.5404232
111.5409949
111.5396956
111.5389768
111.7932407
111.8117857
111.8160001
111.8152903
111.8138732
111.812978
111.8119424
111.8109765
111.8098958
111.8087198
111.8074534
111.8060114