/*--------------------------------*- C++ -*----------------------------------*\
| =========                 |                                                 |
| \\      /  F ield         | OpenFOAM: The Open Source CFD Toolbox           |
|  \\    /   O peration     | Version:  v1912                                 |
|   \\  /    A nd           | Website:  www.openfoam.com                      |
|    \\/     M anipulation  |                                                 |
\*---------------------------------------------------------------------------*/
FoamFile
{
    version     2.0;
    format      ascii;
    class       volVectorField;
    location    "0.4";
    object      U.gas;
}
// * * * * * * * * * * * * * * * * * * * * * * * * * * * * * * * * * * * * * //

dimensions      [0 1 -1 0 0 0 0];


internalField   nonuniform List<vector> 
4800
(
(0.0002534615359 2.63900357e-19 0.01240878825)
(0.0004363522602 2.177590472e-19 0.01240755782)
(0.0006868233863 -1.002912415e-17 0.01240686767)
(0.0009486417701 -2.526983993e-19 0.01240598234)
(0.001215900804 3.433801848e-19 0.01240484462)
(0.001487420133 2.739416424e-19 0.01240344391)
(0.001763105176 2.649865413e-19 0.01240178077)
(0.002043212843 4.323253672e-19 0.01239986045)
(0.002328131103 -9.429065945e-18 0.0123976909)
(0.002618295372 -1.40539346e-18 0.01239528211)
(0.002914150605 9.617666575e-18 0.01239264578)
(0.003216131332 1.142098442e-17 0.0123897952)
(0.003524649566 2.038070696e-18 0.01238674521)
(0.003840086557 7.302153965e-20 0.0123835121)
(0.004162786686 1.88104547e-19 0.01238011352)
(0.004493052747 2.665474537e-19 0.01237656833)
(0.004831142354 2.693647329e-19 0.01237289638)
(0.005177265431 2.802707004e-19 0.01236911818)
(0.005531582965 2.715248697e-19 0.01236525448)
(0.005894207319 2.600324826e-19 0.01236132569)
(0.006265204605 2.623571784e-19 0.01235735099)
(0.006644599819 2.641322568e-19 0.01235334723)
(0.007032385755 2.612618014e-19 0.01234932738)
(0.007428537227 2.553746242e-19 0.01234529821)
(0.007833032854 2.683980536e-19 0.01234125714)
(0.008245887859 2.634069887e-19 0.01233718747)
(0.008667203409 2.607318346e-19 0.01233305128)
(0.009097241331 2.843591829e-19 0.0123287783)
(0.009536538966 2.781314822e-19 0.01232424837)
(0.009986089443 2.735551785e-19 0.01231926244)
(0.01044763204 2.738716171e-19 0.01231349339)
(0.01092413437 2.497682993e-19 0.01230639948)
(0.01142062371 1.871767722e-19 0.01229706481)
(0.01194565339 1.090274105e-18 0.01228391016)
(0.01251406481 -4.687578332e-18 0.01226409185)
(0.01314750916 -4.557929854e-18 0.01223530368)
(0.01392473195 -2.058184583e-18 0.0121629543)
(0.01452534198 -1.56023221e-19 0.01233563675)
(0.0192101863 4.298724154e-19 0.008953029235)
(0.01165911386 3.776392098e-19 0.02030744346)
(0.000261408181 2.7247084e-19 0.02377447127)
(0.0004485568358 2.187167804e-19 0.02377176105)
(0.0007050152824 -1.039364254e-17 0.02376971612)
(0.0009733008538 -2.762135641e-19 0.02376703659)
(0.001247272896 3.578896445e-19 0.0237635788)
(0.001525700354 2.851267954e-19 0.0237593166)
(0.001808484555 2.739411768e-19 0.0237542533)
(0.002095894965 4.38555881e-19 0.02374840513)
(0.002388339699 -9.759521295e-18 0.02374179599)
(0.002686278376 -1.480692665e-18 0.02373445571)
(0.002990182709 9.944500517e-18 0.02372641919)
(0.003300515902 1.183864625e-17 0.023717726)
(0.003617720189 2.154223164e-18 0.02370842031)
(0.003942208413 8.516966214e-20 0.0236985506)
(0.004274357908 1.913592437e-19 0.0236881694)
(0.004614505848 2.751247795e-19 0.02367733276)
(0.004962945765 2.790289741e-19 0.02366609964)
(0.005319925227 2.722040483e-19 0.0236545309)
(0.005685644808 2.717943841e-19 0.023642688)
(0.006060258691 2.668944748e-19 0.02363063119)
(0.006443877377 2.720210978e-19 0.02361841697)
(0.006836573206 2.71119694e-19 0.02360609465)
(0.007238389691 2.72465161e-19 0.02359370165)
(0.007649356129 2.749614299e-19 0.02358125672)
(0.008069509642 2.731846054e-19 0.02356875039)
(0.008498927925 2.872075602e-19 0.02355613093)
(0.008937777707 2.943510724e-19 0.02354328326)
(0.009386386956 2.772877584e-19 0.02352999661)
(0.009845353747 2.784495413e-19 0.02351591323)
(0.01031571336 2.859081262e-19 0.02350044493)
(0.0107992002 2.889458142e-19 0.02348263277)
(0.01129866809 2.640972438e-19 0.02346090349)
(0.01181877871 1.744982536e-19 0.02343263104)
(0.01236715945 1.115348035e-18 0.02339334677)
(0.01295676608 -4.777025216e-18 0.023334919)
(0.01361052167 -4.723653245e-18 0.02324803226)
(0.01440263376 -2.181565661e-18 0.02303387892)
(0.01504757537 -1.328982913e-19 0.02353501295)
(0.01683227512 3.924889976e-19 0.01555327916)
(0.009071452307 3.72227872e-19 0.04654959935)
(0.0002608111897 2.622432834e-19 0.02259797483)
(0.0004475249401 2.19526471e-19 0.02259478488)
(0.0007033119784 -1.03946996e-17 0.02259146402)
(0.0009708593489 -2.748081778e-19 0.02258697443)
(0.001244099968 3.595362821e-19 0.02258114913)
(0.001521816381 2.832117724e-19 0.02257395819)
(0.001803914945 2.741874644e-19 0.02256541114)
(0.002090668457 4.381772174e-19 0.02255553621)
(0.002382488182 -9.758608109e-18 0.02254437347)
(0.00267983718 -1.476513041e-18 0.02253197249)
(0.002983190934 9.95180043e-18 0.0225183911)
(0.003293016458 1.183900744e-17 0.02250369493)
(0.003609759764 2.150890939e-18 0.02248795716)
(0.00393383739 7.835366726e-20 0.02247125819)
(0.004265630141 1.954516915e-19 0.02245368506)
(0.004605478258 2.743742788e-19 0.02243533073)
(0.004953677705 2.774335931e-19 0.02241629295)
(0.005310477546 2.618450605e-19 0.02239667266)
(0.005676078549 2.664286337e-19 0.0223765718)
(0.00605063326 2.739393063e-19 0.02235609032)
(0.006434248016 2.806287212e-19 0.02233532202)
(0.006826987469 2.67370978e-19 0.02231434896)
(0.00722888247 2.73894358e-19 0.02229323368)
(0.007639942497 2.675517916e-19 0.02227200842)
(0.008060174358 2.80777755e-19 0.02225065965)
(0.008489609624 2.843294919e-19 0.02222910582)
(0.00892834446 2.798236313e-19 0.02220716426)
(0.009376597373 2.876356493e-19 0.02218450083)
(0.009834793133 2.873731032e-19 0.02216055147)
(0.01030368537 2.542564985e-19 0.02213439665)
(0.0107845365 2.329290836e-19 0.02210455452)
(0.01127938203 2.276438803e-19 0.02206863107)
(0.01179141804 2.546575041e-19 0.02202271011)
(0.01232556638 1.097025635e-18 0.0219602769)
(0.01288916129 -4.759099123e-18 0.02186976732)
(0.01349129201 -4.712759369e-18 0.02173678752)
(0.01415564753 -2.071430133e-18 0.02142355055)
(0.01472431011 -1.557605243e-19 0.0221411102)
(0.01514427976 5.28333346e-19 0.01260023614)
(0.007574689985 3.451277544e-19 0.05833853863)
(0.0002597147955 2.600896106e-19 0.02227808616)
(0.00044566989 2.154063185e-19 0.02227442953)
(0.0007003873654 -1.03944436e-17 0.0222699057)
(0.0009668012747 -2.720610551e-19 0.02226361767)
(0.001238902988 3.556467163e-19 0.02225541719)
(0.001515496572 2.828855537e-19 0.02224528054)
(0.001796499148 2.738015526e-19 0.0222332267)
(0.002082190951 4.359586922e-19 0.02221929695)
(0.002372989627 -9.7629278e-18 0.02220354795)
(0.002669364282 -1.465581626e-18 0.02218604903)
(0.002971796332 9.963800557e-18 0.02216688098)
(0.003280758711 1.184223544e-17 0.02214613556)
(0.003596703246 2.136251586e-18 0.0221239151)
(0.003920052034 8.351381918e-20 0.02210033205)
(0.004251190984 1.949628154e-19 0.02207550835)
(0.004590464719 2.762954331e-19 0.02204957435)
(0.004938172525 2.744097951e-19 0.02202266736)
(0.005294565269 2.684882012e-19 0.02199492945)
(0.005659843411 2.730721199e-19 0.02196650453)
(0.006034156296 2.739901596e-19 0.02193753427)
(0.006417603081 2.855254579e-19 0.02190815257)
(0.006810235738 2.736731039e-19 0.02187847808)
(0.007212064762 2.818690396e-19 0.02184860398)
(0.007623068365 2.760449633e-19 0.02181858373)
(0.008043206259 2.749380733e-19 0.02178841121)
(0.008472439456 2.884554132e-19 0.02175799224)
(0.008910757892 2.860295709e-19 0.02172710291)
(0.00935821814 2.9703594e-19 0.02169532755)
(0.009814993713 2.610535334e-19 0.02166196401)
(0.01028143967 2.372037336e-19 0.02162587604)
(0.01075816989 2.676152686e-19 0.02158525796)
(0.01124613476 2.254765689e-19 0.02153725166)
(0.01174665871 1.773572923e-19 0.02147730847)
(0.0122613211 1.132947532e-18 0.02139812121)
(0.01279136466 -4.870579087e-18 0.02128740215)
(0.01333567321 -4.712567852e-18 0.02113173768)
(0.01388004985 -1.968548301e-18 0.0207915371)
(0.01434593046 -4.481353993e-20 0.02156322353)
(0.01423723497 5.290353274e-19 0.01170109804)
(0.006882431676 3.073664091e-19 0.06960124198)
(0.000258225211 2.606844858e-19 0.0219093507)
(0.0004431247692 2.185545159e-19 0.02190522587)
(0.000696388402 -1.039731928e-17 0.02189952541)
(0.0009612865574 -2.709978506e-19 0.02189144171)
(0.001231867783 3.584387618e-19 0.021880853)
(0.001506959881 2.833006079e-19 0.02186774745)
(0.001786493857 2.740061477e-19 0.02185215579)
(0.002070760243 4.33789997e-19 0.02183413334)
(0.002360185617 -9.766125803e-18 0.02181375367)
(0.002655247495 -1.452990805e-18 0.02179110599)
(0.00295643549 9.975205718e-18 0.02176629414)
(0.003264230618 1.184297252e-17 0.02173943601)
(0.003579092594 2.12219465e-18 0.02171066323)
(0.003901451035 8.093504864e-20 0.02168012064)
(0.004231698749 1.968398656e-19 0.02164796552)
(0.004570186293 2.732774699e-19 0.02161436637)
(0.004917217467 2.743078701e-19 0.02157950112)
(0.005273045658 2.719279488e-19 0.02154355451)
(0.005637871073 2.698488147e-19 0.02150671451)
(0.006011839015 2.711165866e-19 0.02146916737)
(0.00639503943 2.723363342e-19 0.02143109103)
(0.006787508008 2.767675098e-19 0.02139264613)
(0.007189229177 2.788945031e-19 0.02135396396)
(0.007600141362 2.817277119e-19 0.02131512991)
(0.00802014488 2.805696415e-19 0.02127616062)
(0.008449112789 2.867987888e-19 0.02123697187)
(0.00888690459 2.840544867e-19 0.02119733278)
(0.009333381838 2.948994893e-19 0.02115679903)
(0.009788422762 2.659428057e-19 0.02111461414)
(0.01025192842 2.297738077e-19 0.02106956107)
(0.01072380281 2.205299156e-19 0.0210197361)
(0.01120386732 2.61459729e-19 0.02096220106)
(0.01169162885 1.829584353e-19 0.02089243883)
(0.01218580634 1.136327992e-18 0.02080347009)
(0.012683077 -4.990866405e-18 0.02068430587)
(0.01317698045 -4.701199783e-18 0.02052411787)
(0.01363779822 -1.852720939e-18 0.02020534266)
(0.01406794779 9.769781991e-20 0.0209351996)
(0.01369140573 4.88801748e-19 0.0112351347)
(0.006476340675 2.938388325e-19 0.08017068744)
(0.0002563327823 2.601522704e-19 0.02154601038)
(0.0004398876691 2.154792109e-19 0.02154142689)
(0.0006913120649 -1.039938548e-17 0.02153455696)
(0.000954304016 -2.643157558e-19 0.02152467088)
(0.001222976024 3.534637412e-19 0.02151167415)
(0.001496182103 2.828456573e-19 0.02149556928)
(0.001773869631 2.744643051e-19 0.02147640017)
(0.002056341896 4.310509383e-19 0.02145423687)
(0.002344036768 -9.78002341e-18 0.02142917009)
(0.002637442467 -1.435563922e-18 0.02140130904)
(0.002937059064 9.984770851e-18 0.02137078057)
(0.003243377869 1.183125156e-17 0.02133772881)
(0.003556868656 2.102136842e-18 0.02130231483)
(0.003877970658 8.33665513e-20 0.02126471621)
(0.004207085551 1.956867106e-19 0.02122512617)
(0.004544571605 2.697173639e-19 0.02118375231)
(0.004890738638 2.732065127e-19 0.02114081452)
(0.005245843656 2.68321794e-19 0.0210965421)
(0.005610087189 2.730910212e-19 0.02105116966)
(0.005983610375 2.705761672e-19 0.02100493162)
(0.006366492921 2.77712637e-19 0.02095805474)
(0.006758752058 2.774309598e-19 0.02091074821)
(0.007160342551 2.886117642e-19 0.02086319043)
(0.007571157702 2.815278139e-19 0.02081551126)
(0.00799103109 2.800016236e-19 0.02076776788)
(0.008419738297 2.847488341e-19 0.02071991174)
(0.008856996946 2.880634654e-19 0.02067174267)
(0.009302461613 2.85359759e-19 0.02062284419)
(0.009755706852 2.44803861e-19 0.02057249153)
(0.01021618533 2.256622638e-19 0.0205195196)
(0.01068313574 2.611020593e-19 0.02046213373)
(0.01115539451 2.55090416e-19 0.02039763839)
(0.01163106696 1.734391968e-19 0.02032201805)
(0.01210676383 1.10355276e-18 0.02022940162)
(0.0125760714 -5.064267149e-18 0.02011124064)
(0.01302917909 -4.637248015e-18 0.01995904371)
(0.01343196472 -1.7524414e-18 0.0196849034)
(0.01363536866 1.512428478e-19 0.02031463884)
(0.01282681821 5.296445603e-19 0.01107101368)
(0.005932223116 2.679393876e-19 0.09027160915)
(0.0002540347547 2.613159369e-19 0.02118543171)
(0.0004359559489 2.184914493e-19 0.02118039875)
(0.0006851518435 -1.040164533e-17 0.02117235658)
(0.0009458401792 -2.56110897e-19 0.02116065357)
(0.001212207139 3.528822766e-19 0.02114522221)
(0.001483136061 2.818052427e-19 0.02112608025)
(0.001758593043 2.733664777e-19 0.02110328551)
(0.002038896381 4.279275972e-19 0.02107692307)
(0.002324497482 -9.790612646e-18 0.02104710089)
(0.002615897525 -1.412496542e-18 0.02101394816)
(0.00291360931 1.001577322e-17 0.02097761471)
(0.003218136728 1.182525333e-17 0.02093827092)
(0.003529961899 2.079079711e-18 0.02089610748)
(0.003849535934 8.127891853e-20 0.02085133507)
(0.004177271575 1.956541283e-19 0.02080418356)
(0.004513536875 2.721172975e-19 0.02075490066)
(0.004858649542 2.743135148e-19 0.02070374979)
(0.005212871798 2.714612738e-19 0.02065100699)
(0.005576405707 2.738032426e-19 0.02059695651)
(0.005949388981 2.70520924e-19 0.02054188494)
(0.006331891247 2.80991068e-19 0.0204860733)
(0.006723910768 2.766187095e-19 0.02042978662)
(0.007125371436 2.799588198e-19 0.02037326028)
(0.007536119625 2.840407407e-19 0.02031668208)
(0.007955920103 2.776259894e-19 0.02026016838)
(0.008384449493 2.875070207e-19 0.02020373241)
(0.008821284542 2.872825448e-19 0.02014724181)
(0.009265880239 2.742203647e-19 0.02009036123)
(0.009717529144 2.572723469e-19 0.02003247461)
(0.01017528728 2.602308055e-19 0.01997258001)
(0.01063784089 2.549225109e-19 0.01990915055)
(0.0111032927 2.463436112e-19 0.01983993781)
(0.01156873855 1.67724723e-19 0.01976172528)
(0.01202951049 1.12718459e-18 0.01967015944)
(0.01247787058 -5.195631429e-18 0.01955948008)
(0.01290216721 -4.631283604e-18 0.0194238259)
(0.01326314563 -1.632929668e-18 0.0192074295)
(0.01345311615 1.516371212e-19 0.01969758804)
(0.0124436039 5.149738339e-19 0.01123081225)
(0.00564108702 2.951870265e-19 0.099962465)
(0.0002513271391 2.614818778e-19 0.02082838252)
(0.0004313231679 2.136610027e-19 0.02082290707)
(0.0006778962847 -1.040406989e-17 0.02081368356)
(0.0009358768397 -2.517189732e-19 0.02080014251)
(0.001199535662 3.526945607e-19 0.02078224334)
(0.001467789042 2.819528163e-19 0.02076001922)
(0.00174062419 2.742483108e-19 0.02073354209)
(0.002018376593 4.233661151e-19 0.02070291214)
(0.002301513388 -9.802451396e-18 0.02066825451)
(0.002590550957 -1.390781505e-18 0.02062971818)
(0.002886017146 1.004113897e-17 0.02058747588)
(0.003188430806 1.182599366e-17 0.02054172414)
(0.003498288827 2.053600547e-18 0.02049268343)
(0.003816056659 8.206225733e-20 0.02044059789)
(0.004142160564 1.976268467e-19 0.02038573471)
(0.004476980786 2.696797783e-19 0.02032838286)
(0.004820845227 2.723082442e-19 0.02026885098)
(0.005174023464 2.764153506e-19 0.02020746417)
(0.005536721027 2.754218097e-19 0.02014455956)
(0.005909073873 2.714999363e-19 0.02008048024)
(0.006291142965 2.817486701e-19 0.02001556725)
(0.006682908809 2.795054909e-19 0.01995014907)
(0.007084265619 2.82435285e-19 0.01988452817)
(0.007495014425 2.861026865e-19 0.01981896374)
(0.007914853989 2.811352113e-19 0.01975364938)
(0.008343367574 2.865552721e-19 0.01968868452)
(0.008780002293 2.77062235e-19 0.0196240378)
(0.009224035673 2.648911288e-19 0.01955950006)
(0.009674520308 2.548958408e-19 0.01949462507)
(0.01013019334 2.41601229e-19 0.01942865466)
(0.01058933229 2.526665006e-19 0.01936042906)
(0.0110495225 2.29782366e-19 0.0192882617)
(0.01150726363 1.715338921e-19 0.01920988277)
(0.01195739562 1.102649818e-18 0.01912244673)
(0.01239216346 -5.288845383e-18 0.01902271088)
(0.01280034728 -4.596759544e-18 0.01890779003)
(0.01314237706 -1.520303509e-18 0.01875636802)
(0.01322773087 2.014904521e-19 0.01911356568)
(0.0119648239 5.144499748e-19 0.01165571587)
(0.005327071856 2.677009799e-19 0.1093022047)
(0.0002482047113 2.608851762e-19 0.02047543452)
(0.0004259802649 2.130480388e-19 0.02046952105)
(0.0006695303021 -1.04089765e-17 0.0204591024)
(0.0009243917422 -2.463695544e-19 0.02044369668)
(0.0011849316 3.542596768e-19 0.02042329031)
(0.001450103082 2.819010922e-19 0.02039793183)
(0.001719916982 2.743979675e-19 0.02036770718)
(0.001994728161 4.187448249e-19 0.02033273147)
(0.002275021667 -9.811154547e-18 0.02029314671)
(0.002561331348 -1.360387649e-18 0.02024912143)
(0.002854202467 1.005549231e-17 0.02020085095)
(0.003154171325 1.182204396e-17 0.02014855785)
(0.003461752173 2.026059718e-18 0.02009249236)
(0.00377742748 7.724708141e-20 0.0200329324)
(0.004101639771 2.002425803e-19 0.01997018316)
(0.004434784251 2.717822352e-19 0.01990457601)
(0.004777201787 2.738224129e-19 0.01983646647)
(0.005129172049 2.709670557e-19 0.01976623119)
(0.005490906709 2.688152096e-19 0.01969426349)
(0.005862542591 2.786649986e-19 0.01962096738)
(0.006244134649 2.811797118e-19 0.01954674975)
(0.006635648495 2.783123435e-19 0.0194720101)
(0.007036952049 2.850657536e-19 0.01939712782)
(0.007447805558 2.880900264e-19 0.01932244612)
(0.007867848611 2.832851103e-19 0.01924825225)
(0.00829658214 2.890570406e-19 0.01917475301)
(0.008733342337 2.674271687e-19 0.019102045)
(0.009177260154 2.613530362e-19 0.01903008013)
(0.009627199674 2.533063885e-19 0.01895862456)
(0.0100816645 2.450004366e-19 0.01888721339)
(0.01053865808 2.413093449e-19 0.01881510215)
(0.0109954622 2.749279621e-19 0.01874122341)
(0.0114483132 1.944640289e-19 0.01866423597)
(0.01189199245 1.126211138e-18 0.01858261829)
(0.01231929643 -5.464280225e-18 0.0184950841)
(0.01272153093 -4.60469785e-18 0.01840060852)
(0.01307070935 -1.400635981e-18 0.01830757215)
(0.01322217909 3.151459214e-19 0.01851947903)
(0.01178459249 4.981247516e-19 0.01228634285)
(0.005127312397 2.617329462e-19 0.1183597098)
(0.0002446610758 2.610159228e-19 0.02012717984)
(0.0004199160861 2.097856814e-19 0.02012083033)
(0.0006600358051 -1.041348276e-17 0.02010919897)
(0.0009113589785 -2.355582585e-19 0.02009189711)
(0.001168360655 3.539837116e-19 0.02006893841)
(0.001430035108 2.829640121e-19 0.02004038657)
(0.001696419271 2.754370052e-19 0.02000634116)
(0.00196788957 4.145601414e-19 0.0199669318)
(0.002244951151 -9.827731004e-18 0.01992231693)
(0.00252815763 -1.328239529e-18 0.01987268411)
(0.002818074134 1.008154777e-17 0.01981825085)
(0.003115257018 1.181759957e-17 0.01975926547)
(0.003420240669 1.996494292e-18 0.01969600787)
(0.003733527495 7.980539926e-20 0.01962878997)
(0.004055579338 2.056150529e-19 0.01955795551)
(0.004386809529 2.746161633e-19 0.01948387932)
(0.004727575155 2.762210269e-19 0.01940696549)
(0.005078169313 2.755737833e-19 0.01932764461)
(0.00543881324 2.719047702e-19 0.01924636947)
(0.005809648195 2.822302894e-19 0.01916360943)
(0.006190726935 2.929813502e-19 0.01907984284)
(0.006582004484 2.882901775e-19 0.01899554749)
(0.006983327716 2.896552896e-19 0.01891118872)
(0.007394422997 2.907394734e-19 0.01882720517)
(0.007814880511 2.913794585e-19 0.01874399177)
(0.008244133766 2.949393476e-19 0.01866187951)
(0.008681430303 2.631840353e-19 0.01858111352)
(0.00912578881 2.830634472e-19 0.01850183069)
(0.009575938735 2.506407541e-19 0.01842403427)
(0.01003023227 2.431254795e-19 0.01834757527)
(0.01048651619 2.385432074e-19 0.01827213918)
(0.01094194594 2.731634399e-19 0.0181972686)
(0.01139274035 2.167222379e-19 0.01812246239)
(0.01183388481 1.141478347e-18 0.01804732011)
(0.01225881429 -5.554912778e-18 0.0179719953)
(0.01266077398 -4.573980235e-18 0.01789557624)
(0.0130207761 -1.273045378e-18 0.01784667394)
(0.01308072708 3.549972761e-19 0.0178611105)
(0.01137690774 5.155161456e-19 0.01313477437)
(0.004845451698 2.166633245e-19 0.1272002687)
(0.000240688824 2.531661359e-19 0.01978421968)
(0.0004131177451 2.024603486e-19 0.01977743381)
(0.0006493921359 -1.041785011e-17 0.01976456889)
(0.0008967493431 -2.241696218e-19 0.01974533515)
(0.001149784489 3.5014622e-19 0.01971977374)
(0.001407537172 2.845780117e-19 0.01968796312)
(0.001670073057 2.786397555e-19 0.01965001601)
(0.001937792347 4.11606376e-19 0.01960607587)
(0.002211222493 -9.848290652e-18 0.0195563169)
(0.002490939217 -1.29103156e-18 0.01950094503)
(0.002777530035 1.012746758e-17 0.01944019935)
(0.003071574098 1.180674515e-17 0.01937435342)
(0.003373628886 1.968688119e-18 0.01930371657)
(0.003684219919 8.528243357e-20 0.01922863468)
(0.004003831739 2.130702908e-19 0.01914949054)
(0.004332899376 2.808038941e-19 0.01906670332)
(0.004671799888 2.838057036e-19 0.01898072726)
(0.005020843737 2.821720471e-19 0.01889204914)
(0.005380265868 2.947128323e-19 0.01880118444)
(0.005750216399 2.894716161e-19 0.01870867198)
(0.006130750742 2.90449366e-19 0.01861506694)
(0.006521818862 2.944539327e-19 0.01852093203)
(0.006923253265 2.952251712e-19 0.01842682673)
(0.00733475499 2.712474641e-19 0.01833329483)
(0.007755876506 2.989144399e-19 0.01824085024)
(0.008186000399 2.82330802e-19 0.01814996061)
(0.008624308577 2.659422285e-19 0.01806103438)
(0.009069741924 2.631765693e-19 0.01797440617)
(0.009520945871 2.539548637e-19 0.01789032658)
(0.009976191955 2.836135364e-19 0.01780896456)
(0.01043326986 2.821314273e-19 0.01773042439)
(0.01088934209 2.759595285e-19 0.01765480742)
(0.0113407648 2.498033819e-19 0.01758233826)
(0.01178288908 1.105280159e-18 0.01751353738)
(0.01220986482 -5.63078804e-18 0.01744965032)
(0.01261523161 -4.571376686e-18 0.01738958682)
(0.01297957643 -1.126187327e-18 0.01737808251)
(0.01294081255 3.680157058e-19 0.01718454754)
(0.01105593373 5.126447336e-19 0.01417887481)
(0.004647216185 1.978576355e-19 0.1358652892)
(0.0002362796856 2.625757694e-19 0.01944716649)
(0.0004055708914 2.067232433e-19 0.01943994169)
(0.0006375764091 -1.042398542e-17 0.01942581954)
(0.0008805306605 -2.175385071e-19 0.01940461442)
(0.001129161027 3.512458875e-19 0.0193763951)
(0.001382556731 2.809817303e-19 0.01934125439)
(0.001640814771 2.747417462e-19 0.01929931737)
(0.001904361338 4.005787377e-19 0.01925074055)
(0.002173748406 -9.86304373e-18 0.01919571299)
(0.002449576186 -1.258380848e-18 0.01913445809)
(0.002732457198 1.014663102e-17 0.01906723565)
(0.003022996262 1.179291109e-17 0.01899434379)
(0.003321777101 1.916540987e-18 0.01891612072)
(0.003629351776 7.616917515e-20 0.01883294616)
(0.003946231244 2.076684931e-19 0.0187452421)
(0.004272876223 2.707493453e-19 0.01865347283)
(0.004609687999 2.717542019e-19 0.01855814406)
(0.00495699892 2.694683166e-19 0.01845980087)
(0.00531506247 2.747446975e-19 0.01835902433)
(0.005684042828 2.828870184e-19 0.01825642661)
(0.006064003774 2.844811399e-19 0.01815264462)
(0.006454896719 2.784046997e-19 0.01804833197)
(0.006856547492 2.803559482e-19 0.01794414937)
(0.007268641318 2.782590413e-19 0.01784075382)
(0.007690705641 2.768279751e-19 0.01773878673)
(0.008122087962 2.588869453e-19 0.01763886168)
(0.008561927265 2.504988899e-19 0.01754155864)
(0.009009118908 2.680531851e-19 0.0174474143)
(0.009462267213 2.390069205e-19 0.01735692574)
(0.009919621185 2.321679454e-19 0.01727056729)
(0.01037899045 2.289950886e-19 0.01718883027)
(0.01083763882 2.580637246e-19 0.01711230617)
(0.01129215709 2.057689187e-19 0.01704182845)
(0.01173831757 1.104782243e-18 0.01697866049)
(0.01217087874 -5.83945448e-18 0.01692493458)
(0.0125838224 -4.513057309e-18 0.01687994072)
(0.01295772707 -1.099947735e-18 0.0169047632)
(0.01284252069 4.137302813e-19 0.01652129034)
(0.01081172883 4.524638161e-19 0.0153431766)
(0.004494696935 2.280395859e-19 0.144399248)
(0.0002314246564 2.6049605e-19 0.01911664494)
(0.0003972599244 2.025210979e-19 0.01910897657)
(0.0006245638047 -1.043024116e-17 0.01909357101)
(0.0008626681148 -2.048497399e-19 0.0190703517)
(0.001106444798 3.485596963e-19 0.01903941504)
(0.001355036991 2.792266521e-19 0.01900086752)
(0.001608575615 2.736311811e-19 0.01895484575)
(0.00186751504 3.920729456e-19 0.0189015182)
(0.002132433985 -9.886655709e-18 0.01884108765)
(0.002403959565 -1.219249355e-18 0.01877379382)
(0.002682731998 1.017698639e-17 0.0186999161)
(0.00296938478 1.178599124e-17 0.01861977615)
(0.003264531227 1.872614747e-18 0.01853374036)
(0.003568753642 7.301866261e-20 0.01844222174)
(0.003882593441 2.069018181e-19 0.01834568147)
(0.004206541432 2.670669211e-19 0.01824462941)
(0.004541027867 2.681576929e-19 0.01813962384)
(0.004886412082 2.70379509e-19 0.01803126995)
(0.005242971572 2.758237966e-19 0.01792021701)
(0.005610890477 2.815185046e-19 0.01780715407)
(0.005990247398 2.809359423e-19 0.01769280419)
(0.006381002399 2.752159651e-19 0.01757791717)
(0.006782982942 2.779998262e-19 0.01746326099)
(0.007195868389 2.801690816e-19 0.01734961245)
(0.007619173319 2.734294475e-19 0.01723774645)
(0.008052225663 2.523514976e-19 0.0171284294)
(0.008494142199 2.439940785e-19 0.01702241488)
(0.00894379953 2.639828102e-19 0.01692044073)
(0.009399795543 2.365417554e-19 0.01682324114)
(0.009860401528 2.244753257e-19 0.01673157337)
(0.01032350261 2.199636696e-19 0.01664627187)
(0.01078652705 2.511107136e-19 0.01656834268)
(0.01124636322 2.417588692e-19 0.01649911448)
(0.0116992644 1.103271443e-18 0.01644044158)
(0.01214071418 -5.951175957e-18 0.01639518104)
(0.01256551351 -4.483440789e-18 0.01636316341)
(0.01295702574 -9.976944775e-19 0.01642058562)
(0.01278335464 4.023308648e-19 0.01585734197)
(0.01063100724 4.496461653e-19 0.01659114261)
(0.004379380614 2.079398198e-19 0.1528491129)
(0.0002261141258 2.622994988e-19 0.01879329296)
(0.0003881682022 1.958845827e-19 0.01878517437)
(0.0006103278607 -1.043832399e-17 0.01876845706)
(0.0008431245995 -1.921819938e-19 0.01874317794)
(0.00108158732 3.450727881e-19 0.01870946082)
(0.00132491733 2.77933637e-19 0.01866742509)
(0.001573282002 2.718354998e-19 0.01861721778)
(0.001827166041 3.829655378e-19 0.01855901805)
(0.002087177121 -9.912780688e-18 0.01849304096)
(0.002353971697 -1.177593698e-18 0.01841954109)
(0.002628220446 1.022288645e-17 0.01833881602)
(0.002910588687 1.176373185e-17 0.01825120965)
(0.003201722867 1.823722685e-18 0.01815711539)
(0.003502239493 7.42261837e-20 0.01805697881)
(0.003812714829 2.055109909e-19 0.01795129983)
(0.004133674587 2.641418676e-19 0.01784063406)
(0.004465583221 2.626409481e-19 0.01772559308)
(0.004808832692 2.697111102e-19 0.01760684369)
(0.005163730576 2.608380339e-19 0.01748510565)
(0.005530487505 2.635047861e-19 0.01736114798)
(0.005909203956 2.713277294e-19 0.01723578385)
(0.006299856365 2.731483503e-19 0.0171098639)
(0.006702282453 2.695341528e-19 0.01698426855)
(0.007116165719 2.94042686e-19 0.01685989961)
(0.007541018997 2.7851796e-19 0.0167376702)
(0.00797616493 2.557268772e-19 0.01661850318)
(0.008420715574 2.520030852e-19 0.01650332497)
(0.00887354962 2.251166388e-19 0.01639306931)
(0.009333284688 2.553379021e-19 0.01628869285)
(0.009798245795 2.456880074e-19 0.01619120741)
(0.01026643 2.457092595e-19 0.01610174064)
(0.01073546909 2.397170344e-19 0.01602163523)
(0.01120258789 2.740287331e-19 0.0159526034)
(0.0116645555 1.046999627e-18 0.015896941)
(0.01211762251 -6.040177962e-18 0.01585802218)
(0.01255763448 -4.461097412e-18 0.01583611484)
(0.01297183535 -8.730224288e-19 0.01591929364)
(0.01275234531 3.983780243e-19 0.01518329342)
(0.01049471403 5.687498343e-19 0.01790550427)
(0.004289371692 1.873912072e-19 0.1612496678)
(0.0002203379972 2.63202668e-19 0.01847776246)
(0.0003782782405 1.974032411e-19 0.01846918509)
(0.0005948407708 -1.044252292e-17 0.01845112592)
(0.0008218610972 -1.779741325e-19 0.01842373906)
(0.001054537551 3.450289196e-19 0.01838717534)
(0.001292133792 2.799319107e-19 0.01834156608)
(0.001534856092 2.755078215e-19 0.01828706735)
(0.00178322158 3.78899461e-19 0.01822386745)
(0.002037869053 -9.934038069e-18 0.01815219205)
(0.002299486755 -1.124095481e-18 0.01807230879)
(0.002568778643 1.026166194e-17 0.01798453163)
(0.002846445114 1.176051289e-17 0.01788922505)
(0.003133169484 1.782881243e-18 0.01778680798)
(0.003429606689 7.879074082e-20 0.01767775735)
(0.00373637257 2.174914136e-19 0.01756261105)
(0.004054032966 2.737420984e-19 0.01744197016)
(0.004383092258 2.730629993e-19 0.01731649997)
(0.004723981221 2.714912639e-19 0.01718692998)
(0.005077044155 2.791636799e-19 0.01705405233)
(0.005442525272 2.883292941e-19 0.01691871879)
(0.00582055449 2.888351375e-19 0.01678183608)
(0.006211132699 2.841629816e-19 0.01664435984)
(0.00661411658 2.854787745e-19 0.01650728741)
(0.007029203383 2.919781767e-19 0.01637164979)
(0.007455914638 2.798855229e-19 0.01623850249)
(0.00789357956 2.738886989e-19 0.01610892572)
(0.008341319128 2.680647268e-19 0.01598401696)
(0.008798029466 2.680897335e-19 0.01586489781)
(0.009262365205 2.564531285e-19 0.01575273018)
(0.009732723926 2.498437804e-19 0.01564874963)
(0.01020723376 2.457719091e-19 0.0155543253)
(0.01068374823 2.479891892e-19 0.01547105858)
(0.01115984979 2.554175667e-19 0.01540093198)
(0.01163286036 1.07808174e-18 0.01534652692)
(0.01209981236 -6.208478348e-18 0.01531154585)
(0.01255763295 -4.373213973e-18 0.01529643234)
(0.01299736001 -7.914525571e-19 0.01539756721)
(0.01273720174 4.613717521e-19 0.01449267053)
(0.01038484144 4.720999625e-19 0.01927690799)
(0.004215739118 1.417524468e-19 0.1696241835)
(0.0002140858167 2.626145634e-19 0.01817071992)
(0.0003675719342 1.910344525e-19 0.01816167349)
(0.0005780737148 -1.045132168e-17 0.01814224093)
(0.0007988371039 -1.629879774e-19 0.01811269671)
(0.001025242387 3.413372238e-19 0.01807321797)
(0.00125661966 2.796947249e-19 0.01802394677)
(0.001493216415 2.760769475e-19 0.01796504666)
(0.001735584198 3.699269322e-19 0.0178967132)
(0.001984395039 -9.963188687e-18 0.01781918062)
(0.0022403714 -1.074804509e-18 0.01773272746)
(0.002504253378 1.030467138e-17 0.01763768191)
(0.002776779805 1.174355714e-17 0.01753442688)
(0.003058674782 1.730585787e-18 0.0174234049)
(0.003350636164 8.602140396e-20 0.01730512257)
(0.003653324432 2.211754779e-19 0.01718015456)
(0.003967351206 2.729655869e-19 0.01704914666)
(0.004293267002 2.725200286e-19 0.01691281784)
(0.004631548146 2.710396845e-19 0.01677196097)
(0.004982582869 2.777609883e-19 0.01662744212)
(0.005346656613 2.700149245e-19 0.01648019809)
(0.005723936769 2.812103448e-19 0.01633123233)
(0.006114457058 2.827889444e-19 0.01618160923)
(0.00651810181 2.790559929e-19 0.01603244712)