/*--------------------------------*- C++ -*----------------------------------*\
| =========                 |                                                 |
| \\      /  F ield         | OpenFOAM: The Open Source CFD Toolbox           |
|  \\    /   O peration     | Version:  v1912                                 |
|   \\  /    A nd           | Website:  www.openfoam.com                      |
|    \\/     M anipulation  |                                                 |
\*---------------------------------------------------------------------------*/
FoamFile
{
    version     2.0;
    format      ascii;
    class       volVectorField;
    location    "0.4";
    object      U.gas_0;
}
// * * * * * * * * * * * * * * * * * * * * * * * * * * * * * * * * * * * * * //

dimensions      [0 1 -1 0 0 0 0];


internalField   nonuniform List<vector> 
4800
(
(0.0002537011082 2.630617716e-19 0.01240862163)
(0.00043675205 2.170401425e-19 0.01240739803)
(0.0006874434187 -1.000495819e-17 0.01240670783)
(0.0009494944818 -2.49344901e-19 0.01240582105)
(0.001216994214 3.421711998e-19 0.01240468099)
(0.001488762071 2.731653855e-19 0.01240327716)
(0.001764704422 2.643330726e-19 0.0124016101)
(0.002045079605 4.300153459e-19 0.01239968503)
(0.002330277313 -9.409994845e-18 0.01239750984)
(0.00262073493 -1.393097739e-18 0.01239509446)
(0.002916899578 9.601005777e-18 0.01239245051)
(0.003219208141 1.138968625e-17 0.01238959124)
(0.003528075147 2.023250452e-18 0.0123865314)
(0.003843884491 7.259699194e-20 0.01238328725)
(0.004166983282 1.88390588e-19 0.01237987641)
(0.004497677071 2.659458141e-19 0.01237631772)
(0.00483622617 2.686345887e-19 0.01237263107)
(0.005182843041 2.796150611e-19 0.01236883705)
(0.005537690919 2.707945834e-19 0.01236495652)
(0.005900883956 2.593677188e-19 0.01236101008)
(0.006272489395 2.61799131e-19 0.01235701719)
(0.006652532448 2.635065331e-19 0.01235299511)
(0.007041004904 2.606120886e-19 0.01234895728)
(0.007437878983 2.546894656e-19 0.01234491116)
(0.007843128657 2.678071553e-19 0.01234085501)
(0.00825676191 2.628436498e-19 0.01233677324)
(0.008678869408 2.600893476e-19 0.01233262924)
(0.009109698438 2.835210832e-19 0.01232835444)
(0.009549766848 2.774346642e-19 0.01232383072)
(0.01000004232 2.728908524e-19 0.01231886147)
(0.01046223171 2.729150257e-19 0.01231312239)
(0.01093926256 2.49209037e-19 0.01230607482)
(0.01143611451 1.867978917e-19 0.01229680572)
(0.01196128825 1.088080502e-18 0.01228373735)
(0.01252957152 -4.689986444e-18 0.01226402614)
(0.0131626269 -4.548844495e-18 0.01223532447)
(0.01393899821 -2.04340698e-18 0.01216322035)
(0.01454096085 -1.475355628e-19 0.01233419066)
(0.01922412325 4.298953924e-19 0.008954918257)
(0.01166427582 3.761505499e-19 0.02031100186)
(0.0002615888579 2.718031702e-19 0.02377400973)
(0.000448866689 2.179512367e-19 0.02377131324)
(0.0007055020062 -1.036791851e-17 0.02376926791)
(0.0009739736749 -2.725657875e-19 0.02376658411)
(0.001248138366 3.566134688e-19 0.02376311951)
(0.00152676535 2.843086223e-19 0.02375884817)
(0.001809757063 2.732447156e-19 0.0237537734)
(0.00209738444 4.361137696e-19 0.0237479113)
(0.002390057325 -9.739342192e-18 0.02374128559)
(0.002688237284 -1.467446716e-18 0.0237339259)
(0.002992398183 9.927007613e-18 0.02372586693)
(0.003303005563 1.180538783e-17 0.02371714805)
(0.003620504171 2.138128466e-18 0.02370781325)
(0.003945309511 8.461963856e-20 0.02369791085)
(0.004277801682 1.916481659e-19 0.02368749326)
(0.004618320668 2.74449815e-19 0.02367661654)
(0.004967162786 2.782623043e-19 0.0236653397)
(0.005324578258 2.714614219e-19 0.02365372379)
(0.005690770056 2.71094912e-19 0.02364183067)
(0.006065894343 2.662236306e-19 0.02362972112)
(0.006450062985 2.712976549e-19 0.02361745247)
(0.006843348823 2.703822341e-19 0.02360507516)
(0.007245794715 2.718977242e-19 0.02359262812)
(0.007657427773 2.741047282e-19 0.02358013206)
(0.008078280968 2.723715283e-19 0.02356758005)
(0.008508425338 2.865089546e-19 0.02355492353)
(0.0089480178 2.933923672e-19 0.02354205148)
(0.009397372583 2.763047987e-19 0.02352875806)
(0.009857069191 2.776447762e-19 0.02351469163)
(0.01032811846 2.85316748e-19 0.02349927128)
(0.01081222343 2.879685111e-19 0.02348154656)
(0.01131219863 2.632761666e-19 0.02345995348)
(0.01183265836 1.743725667e-19 0.02343187487)
(0.01238117638 1.112487613e-18 0.02339284702)
(0.01297065378 -4.779958886e-18 0.02333473803)
(0.01362399583 -4.713723169e-18 0.02324812667)
(0.01441506313 -2.16441702e-18 0.02303480595)
(0.01505913256 -1.236242472e-19 0.0235317027)
(0.01684100868 3.921838133e-19 0.01555826305)
(0.009074461476 3.701523421e-19 0.04655935477)
(0.0002609884976 2.616256731e-19 0.02259725947)
(0.0004478297451 2.187667751e-19 0.02259408283)
(0.0007037918355 -1.036895958e-17 0.02259076054)
(0.0009715235884 -2.711530481e-19 0.0225862639)
(0.001244954936 3.582644216e-19 0.02258042751)
(0.001522868714 2.823845416e-19 0.02257322173)
(0.001805172383 2.734979215e-19 0.02256465601)
(0.002092140211 4.357516553e-19 0.02255475837)
(0.002384185191 -9.738401266e-18 0.02254356857)
(0.00268177233 -1.463271664e-18 0.02253113584)
(0.002985379263 9.934242692e-18 0.02251751766)
(0.003295475368 1.180570301e-17 0.0225027793)
(0.003612509197 2.134757197e-18 0.02248699365)
(0.003936899988 7.777893928e-20 0.02247024079)
(0.004269031371 1.957446723e-19 0.02245260762)
(0.004609246476 2.737998122e-19 0.022434187)
(0.004957844151 2.767383108e-19 0.0224150768)
(0.005315076247 2.611225538e-19 0.02239537825)
(0.005681146088 2.657872706e-19 0.02237519388)
(0.006056208404 2.73254917e-19 0.02235462453)
(0.006440371144 2.7996e-19 0.02233376533)
(0.006833699766 2.666999787e-19 0.02231270016)
(0.007236224831 2.731834328e-19 0.02229149402)
(0.007647954084 2.668637881e-19 0.02227018235)
(0.008068890727 2.800850521e-19 0.02224875575)
(0.008499060331 2.834751607e-19 0.02222713792)
(0.00893855004 2.790034445e-19 0.02220515275)
(0.009387565551 2.869132893e-19 0.02218247427)
(0.009846514124 2.865927881e-19 0.02215854844)
(0.01031612607 2.533521621e-19 0.02213246781)
(0.0107976334 2.326539984e-19 0.02210276478)
(0.01129303267 2.2739146e-19 0.02206706125)
(0.01180547094 2.548631761e-19 0.02202145714)
(0.01233980929 1.094439168e-18 0.02195944943)
(0.01290330724 -4.762250468e-18 0.02186947895)
(0.01350497186 -4.702588268e-18 0.02173702464)
(0.01416821326 -2.054234371e-18 0.02142527345)
(0.01473440079 -1.471438805e-19 0.02213753634)
(0.01514986727 5.277549908e-19 0.01260784343)
(0.0075760839 3.413173166e-19 0.05835294048)
(0.000259889295 2.595893548e-19 0.02227712189)
(0.0004459700126 2.147140591e-19 0.02227347748)
(0.0007008601999 -1.036868325e-17 0.0222689506)
(0.0009674561669 -2.684232381e-19 0.02226265264)
(0.001239746143 3.543647633e-19 0.02225443687)
(0.0015165344 2.820491845e-19 0.02224427981)
(0.00179773912 2.73108362e-19 0.02223220029)
(0.002083641981 4.335566685e-19 0.02221823926)
(0.00237466234 -9.742633811e-18 0.02220245293)
(0.002671271243 -1.452429037e-18 0.02218491016)
(0.002973952271 9.946160628e-18 0.02216569121)
(0.003283180734 1.180882198e-17 0.02214488733)
(0.003599411041 2.12025522e-18 0.02212260038)
(0.003923068052 8.300230566e-20 0.02209894242)
(0.004254540586 1.952166104e-19 0.02207403508)
(0.004594176273 2.756233026e-19 0.02204800861)
(0.004942277436 2.736025803e-19 0.02202100039)
(0.005299097926 2.67880492e-19 0.02199315289)
(0.005664841007 2.724115113e-19 0.02196461076)
(0.006039658514 2.7320778e-19 0.02193551687)
(0.006423651593 2.847233032e-19 0.02190600691)
(0.006816873482 2.73104971e-19 0.02187620199)
(0.007219334951 2.811571797e-19 0.0218461986)
(0.007631013159 2.753600997e-19 0.02181605458)
(0.008051865039 2.743020188e-19 0.02178576945)
(0.008481846602 2.875939616e-19 0.02175525614)
(0.008920939963 2.853300386e-19 0.02172429978)
(0.009369190311 2.961078854e-19 0.02169249588)
(0.009826755287 2.599833716e-19 0.02165915614)
(0.01029396842 2.369803629e-19 0.02162316113)
(0.01077141489 2.669342099e-19 0.02158272529)
(0.01126000718 2.245891323e-19 0.0215350138)
(0.01176101966 1.773700965e-19 0.02147550333)
(0.01227596476 1.12982409e-18 0.02139691047)
(0.01280599399 -4.873788845e-18 0.02128696842)
(0.01334986767 -4.701873497e-18 0.02113215136)
(0.01389320568 -1.951591571e-18 0.02079400309)
(0.0143550859 -3.677878597e-20 0.02156012974)
(0.0142405144 5.280038167e-19 0.01171188166)
(0.006882776497 3.03648401e-19 0.06961978436)
(0.0002583963991 2.600578629e-19 0.02190814198)
(0.0004434193445 2.178117189e-19 0.02190402814)
(0.000696852698 -1.037153024e-17 0.02189832277)
(0.0009619297833 -2.673533434e-19 0.02189022625)
(0.001232695943 3.571718246e-19 0.02187961817)
(0.001507979105 2.824777357e-19 0.02186648686)
(0.001787711271 2.733171978e-19 0.02185086277)
(0.002072184377 4.313809012e-19 0.02183280077)
(0.002361826681 -9.74578034e-18 0.02181237384)
(0.002657117624 -1.439856779e-18 0.02178967055)
(0.002958548989 9.957438218e-18 0.02176479403)
(0.00326660419 1.180956422e-17 0.02173786149)
(0.003581745572 2.106238526e-18 0.02170900392)
(0.00390440559 8.040737927e-20 0.02167836561)
(0.004234980072 1.970327341e-19 0.0216461034)
(0.004573822733 2.726652661e-19 0.0216123856)
(0.004921240613 2.735713103e-19 0.0215773902)
(0.005277490332 2.712302246e-19 0.02154130235)
(0.005642775226 2.692490796e-19 0.02150431087)
(0.006017243487 2.705131836e-19 0.0214666035)
(0.00640098754 2.717882873e-19 0.02142836029)
(0.006794044943 2.760593913e-19 0.02138974495)
(0.00719640113 2.780169797e-19 0.02135089284)
(0.007607994361 2.809195273e-19 0.02131189477)
(0.008028723252 2.796964383e-19 0.02127277435)
(0.00845845717 2.861326471e-19 0.02123345628)
(0.008897049372 2.830844104e-19 0.02119372088)
(0.009344351918 2.940530489e-19 0.02115313788)
(0.009800229393 2.649870572e-19 0.02111096821)
(0.01026456386 2.288839534e-19 0.02106601624)
(0.01073723331 2.203300331e-19 0.02101640431)
(0.01121802369 2.611205177e-19 0.02095922538)
(0.01170639304 1.83069223e-19 0.02088999856)
(0.01220099209 1.133602755e-18 0.02080178406)
(0.01269839725 -4.994454756e-18 0.02068363887)
(0.01319198355 -4.689982264e-18 0.02052466621)
(0.01365185111 -1.835328622e-18 0.02020845366)
(0.01407623807 1.045290141e-19 0.0209334419)
(0.01369330489 4.873323721e-19 0.01124993783)
(0.006476602546 2.919362804e-19 0.08019374591)
(0.0002565001663 2.597653309e-19 0.02154456228)
(0.0004401758129 2.147344776e-19 0.02153998842)
(0.0006917663231 -1.037359605e-17 0.02153311166)
(0.0009549333468 -2.607395218e-19 0.02152320996)
(0.001223786156 3.521899829e-19 0.02151019)
(0.001497178808 2.820121515e-19 0.02149405429)
(0.001775059611 2.73765056e-19 0.02147484637)
(0.002057733195 4.286599007e-19 0.02145263568)
(0.002345639071 -9.759635721e-18 0.02142751215)
(0.002639267362 -1.422540951e-18 0.02139958418)
(0.002939120305 9.966875473e-18 0.02136897773)
(0.003245691634 1.179780365e-17 0.02133583604)
(0.003559453804 2.086361914e-18 0.02130031936)
(0.003880848975 8.289535214e-20 0.02126260453)
(0.004210281973 1.959821087e-19 0.02122288418)
(0.004548114409 2.691606381e-19 0.02118136557)
(0.004894659577 2.724196117e-19 0.02113826858)
(0.00525017803 2.675636593e-19 0.0210938229)
(0.005614873813 2.724604447e-19 0.02104826409)
(0.005988891436 2.699275687e-19 0.02100182815)
(0.006372313684 2.770328627e-19 0.02095474432)
(0.006765160385 2.765708294e-19 0.02090722526)
(0.007167388193 2.878636916e-19 0.02085945414)
(0.007578891329 2.806852308e-19 0.02081156712)
(0.007999502979 2.792094884e-19 0.02076362953)
(0.008428996623 2.83809411e-19 0.02071560325)
(0.008867085571 2.872046526e-19 0.0206673013)
(0.009313417244 2.84547205e-19 0.02061832378)
(0.009767555367 2.440300251e-19 0.02056796658)
(0.01022893695 2.248180778e-19 0.02051509029)
(0.01069677856 2.605513657e-19 0.02045793195)
(0.0111698855 2.545595405e-19 0.02039383504)
(0.01164631831 1.735397166e-19 0.02031883187)
(0.01212262263 1.100474691e-18 0.02022710838)
(0.01259229012 -5.067841904e-18 0.02011018926)
(0.01304533407 -4.624989834e-18 0.01995958786)
(0.01344747535 -1.735581951e-18 0.01968848565)
(0.01364829073 1.580896004e-19 0.02031470568)
(0.01283637498 5.278743157e-19 0.01108853196)
(0.005936315312 2.669404013e-19 0.09030054033)
(0.0002541978484 2.606773609e-19 0.02118374997)
(0.0004362367984 2.177395094e-19 0.02117872521)
(0.0006855946341 -1.037580845e-17 0.02117067434)
(0.0009464535218 -2.525597656e-19 0.02115895308)
(0.001212996403 3.516118192e-19 0.0211434949)
(0.00148410658 2.809730782e-19 0.02112431742)
(0.001759750997 2.726958864e-19 0.02110147794)
(0.002040249221 4.255512694e-19 0.02107506076)
(0.002326054247 -9.77016105e-18 0.02104517292)
(0.002617669124 -1.399526345e-18 0.02101194254)
(0.002915608809 9.9977322e-18 0.02097551839)
(0.00322037964 1.179185634e-17 0.02093606973)
(0.003532466471 2.063430178e-18 0.02089378619)
(0.003852323438 8.087855225e-20 0.02084887752)
(0.004180366582 1.959969263e-19 0.02080157278)
(0.004516967502 2.715208547e-19 0.02075211919)
(0.004862447658 2.73600682e-19 0.02070078)
(0.005217073172 2.708439944e-19 0.02064783157)
(0.005581050076 2.730734186e-19 0.02059355908)
(0.005954520014 2.698282323e-19 0.0205382508)
(0.00633755638 2.801706915e-19 0.02048219041)
(0.006730160876 2.758317466e-19 0.02042564676)
(0.007132260315 2.791306205e-19 0.02036886051)
(0.007543703233 2.830609273e-19 0.02031202645)
(0.007964255517 2.766710509e-19 0.02025527008)
(0.008393593532 2.866696223e-19 0.02019861635)
(0.008831291957 2.865067917e-19 0.02014194774)
(0.009276801374 2.734245117e-19 0.02008494761)
(0.009729406884 2.56658366e-19 0.02002702337)
(0.010188153 2.596963049e-19 0.01996720247)
(0.01065170893 2.544110073e-19 0.01990399483)
(0.01111815187 2.458296765e-19 0.01983519866)
(0.01158454015 1.67836642e-19 0.01975765598)
(0.01204615159 1.124168239e-18 0.01966708672)
(0.01249516875 -5.199197059e-18 0.01955782703)
(0.01291979609 -4.618384084e-18 0.01942409714)
(0.01328072602 -1.615852787e-18 0.01921107937)
(0.01346946659 1.580580723e-19 0.01969873355)
(0.01245755227 5.139057911e-19 0.01125003643)
(0.00564734382 2.926495069e-19 0.09999959914)
(0.0002514854932 2.60838411e-19 0.02082647354)
(0.0004315959277 2.130035209e-19 0.02082100482)
(0.0006783263003 -1.037819227e-17 0.02081177086)
(0.0009364722886 -2.481978907e-19 0.02079820917)
(0.001200301472 3.514125163e-19 0.02078027995)
(0.001468730016 2.811384847e-19 0.0207580161)
(0.00174174588 2.735670346e-19 0.02073148886)
(0.00201968574 4.209974491e-19 0.02070079747)
(0.002303018253 -9.781868281e-18 0.02066606592)
(0.002592261626 -1.377939776e-18 0.02062744195)
(0.002887945844 1.002294055e-17 0.02058509695)
(0.003190592218 1.17925102e-17 0.02053922612)
(0.003500700429 2.038048911e-18 0.02049004858)
(0.003818739056 8.168390154e-20 0.02043780729)
(0.004145137817 1.978504433e-19 0.02038276841)
(0.004480280728 2.690816773e-19 0.02032522018)
(0.004824499748 2.716549411e-19 0.02026547086)
(0.00517806875 2.758339538e-19 0.02020384574)
(0.005541197733 2.747702717e-19 0.02014068276)
(0.005914027211 2.708837421e-19 0.02007632669)
(0.006296622689 2.810075716e-19 0.02001112131)
(0.006688969054 2.78694572e-19 0.01994539912)
(0.007090964585 2.816997203e-19 0.01987946821)
(0.007502413865 2.852163164e-19 0.01981359529)
(0.007923018463 2.802810074e-19 0.01974798383)
(0.008352363432 2.85797323e-19 0.01968274595)
(0.008789896329 2.763066877e-19 0.01961786644)
(0.009234893368 2.64349222e-19 0.01955315653)
(0.009686403539 2.545778926e-19 0.01948819569)
(0.01014315732 2.412457229e-19 0.01942225808)
(0.01060342109 2.5221849e-19 0.01935422506)
(0.01106476282 2.29450462e-19 0.01928246299)
(0.01152365614 1.717282347e-19 0.01920476903)
(0.01197490062 1.099775782e-18 0.01911838505)
(0.01241067906 -5.292854675e-18 0.01902018486)
(0.01281965465 -4.583426407e-18 0.01890742577)
(0.01316226435 -1.503072768e-18 0.01875954589)
(0.0132471727 2.065465883e-19 0.01911511391)
(0.01198309015 5.126561582e-19 0.01167662931)
(0.005335851817 2.672236823e-19 0.1093502386)
(0.0002483579333 2.602348414e-19 0.02047330529)
(0.000426244241 2.123333802e-19 0.02046739707)
(0.0006699464015 -1.038310431e-17 0.0204569664)
(0.0009249676305 -2.428732322e-19 0.02044153797)
(0.001185671678 3.529770919e-19 0.02042109877)
(0.001451011523 2.810885732e-19 0.02039569691)
(0.001720998602 2.737032687e-19 0.02036541744)
(0.001995988859 4.163803774e-19 0.02033037433)
(0.002276468779 -9.790502496e-18 0.02029070824)
(0.002562973979 -1.347659309e-18 0.02024658618)
(0.002856051828 1.003721478e-17 0.0201982019)
(0.003156241093 1.178855505e-17 0.02014577634)
(0.003464058868 2.010636309e-18 0.02008955812)
(0.003779990852 7.698454898e-20 0.02002982366)
(0.004104483192 2.005241981e-19 0.01996687686)
(0.004437935106 2.711421562e-19 0.01990104802)
(0.004780691843 2.731264005e-19 0.01983269206)
(0.005133037796 2.703100723e-19 0.01976218556)
(0.00549518965 2.682010459e-19 0.01968992246)
(0.00586728947 2.778088373e-19 0.01961630835)
(0.006249397589 2.803947039e-19 0.01954175279)
(0.006641485026 2.776864813e-19 0.01946665936)
(0.007043425014 2.84191373e-19 0.01939141321)
(0.007454982853 2.872968859e-19 0.01931636543)
(0.007875802768 2.825257617e-19 0.01924181358)
(0.008305389687 2.881670741e-19 0.01916797781)
(0.008743082963 2.664560786e-19 0.01909497178)
(0.00918801559 2.608666411e-19 0.01902276894)
(0.009639052262 2.530541902e-19 0.01895116268)
(0.01009469533 2.44514888e-19 0.01887972249)
(0.01055294403 2.408521295e-19 0.01880774821)
(0.01101107262 2.743311492e-19 0.01873422916)
(0.01146530497 1.944344748e-19 0.01865789693)
(0.01191040044 1.12270776e-18 0.01857732817)
(0.01233912043 -5.468528883e-18 0.01849136853)
(0.01274269505 -4.590392026e-18 0.0183991829)
(0.01309316185 -1.383122903e-18 0.01830971718)
(0.01324590212 3.194579072e-19 0.018521057)
(0.01180935912 4.958842989e-19 0.01230717569)
(0.005139746311 2.596984656e-19 0.1184220148)
(0.0002448088491 2.6029574e-19 0.02012483786)
(0.0004201707143 2.091073867e-19 0.02011849214)
(0.0006604370547 -1.038755335e-17 0.02010684742)
(0.0009119139286 -2.32126262e-19 0.02008952116)
(0.001169073092 3.527154084e-19 0.02006652738)
(0.001430908475 2.821411393e-19 0.02003792916)
(0.001697457522 2.747306997e-19 0.02000382501)
(0.001969097625 4.122409789e-19 0.01996434318)
(0.002246335266 -9.806956648e-18 0.01991964051)
(0.002529725748 -1.31568579e-18 0.01986990281)
(0.00281983626 1.006296738e-17 0.0198153457)
(0.003117225619 1.178408049e-17 0.01975621555)
(0.003422431093 1.981169385e-18 0.01969279035)
(0.003735958418 7.957165214e-20 0.01962538014)
(0.004058273224 2.058511951e-19 0.01955432703)
(0.004389793101 2.739371286e-19 0.01948000443)
(0.004730879859 2.754865014e-19 0.0194028155)
(0.005081831768 2.747748998e-19 0.01932319041)
(0.005442875657 2.712582762e-19 0.01924158232)
(0.005814158749 2.814649217e-19 0.01915846187)
(0.006195740075 2.921052406e-19 0.01907430993)
(0.006587581156 2.875657364e-19 0.01898960824)
(0.006989535498 2.888874616e-19 0.01890482792)
(0.007401336117 2.900439641e-19 0.01882041554)
(0.007822579749 2.90290344e-19 0.01873677653)
(0.008252706228 2.941739747e-19 0.01865425561)
(0.008690969084 2.627275575e-19 0.01857311537)
(0.009136392582 2.821179987e-19 0.01849351486)
(0.009587711205 2.502139291e-19 0.01841548535)
(0.01004328157 2.429313453e-19 0.01833891323)
(0.01050095402 2.381384889e-19 0.01826352984)
(0.01095788708 2.724055714e-19 0.01818893586)
(0.01141030167 2.169425834e-19 0.01811470579)
(0.01185318259 1.137521488e-18 0.0180405423)
(0.01227996346 -5.558778403e-18 0.01796673765)
(0.0126838665 -4.557903338e-18 0.01789260129)
(0.01304603172 -1.256549566e-18 0.01784711557)
(0.01310830893 3.584554846e-19 0.01786215994)
(0.01140696054 5.129568158e-19 0.01315376165)
(0.004860928387 2.159201549e-19 0.1272807335)
(0.0002408309235 2.52663388e-19 0.01978167288)
(0.0004133626195 2.0180224e-19 0.01977488938)
(0.0006497778504 -1.039188486e-17 0.01976201003)
(0.000897282318 -2.208228976e-19 0.01974275065)
(0.00115046781 3.488879173e-19 0.01971715251)
(0.001408373442 2.837931177e-19 0.01968529328)
(0.00167106524 2.779584991e-19 0.01964728439)
(0.001938944232 4.093457656e-19 0.01960326772)
(0.002212539081 -9.827439603e-18 0.01955341562)
(0.002492427098 -1.278635947e-18 0.01949793197)
(0.002779197798 1.010871854e-17 0.01943705363)
(0.003073432765 1.177331203e-17 0.01937105191)
(0.003375692389 1.953700166e-18 0.0193002338)
(0.003686505603 8.510825123e-20 0.01922494296)
(0.004006360898 2.13399798e-19 0.0191455601)
(0.004335697808 2.80224216e-19 0.01906250257)
(0.004674898462 2.831740877e-19 0.01897622325)
(0.005024278957 2.814083119e-19 0.01888720808)
(0.005384080433 2.940697857e-19 0.01879597248)
(0.005754459726 2.886204511e-19 0.01870305623)
(0.006135479452 2.89658807e-19 0.01860901667)
(0.006527097217 2.937440469e-19 0.01851442018)
(0.00692915353 2.94345859e-19 0.01841983181)
(0.007341357737 2.707301887e-19 0.01832580311)
(0.007763270831 2.982924199e-19 0.01823285847)
(0.0081942841 2.814167814e-19 0.01814147923)
(0.008633588356 2.654292345e-19 0.01805209127)
(0.009080133625 2.629237039e-19 0.01796505143)
(0.009532574834 2.53683368e-19 0.01788063835)
(0.009989193734 2.83164795e-19 0.01779905624)
(0.01044779139 2.817252169e-19 0.01772045481)
(0.01090554393 2.753224119e-19 0.01764499268)
(0.01135882467 2.499163827e-19 0.01757296925)
(0.01180300606 1.102025501e-18 0.01750500636)
(0.01223227 -5.635395667e-18 0.01744248515)
(0.01264018931 -4.555485659e-18 0.0173845483)
(0.01300755503 -1.108852048e-18 0.01737607629)
(0.012972291 3.710118402e-19 0.01718420087)
(0.01109098504 5.106420528e-19 0.01419489971)
(0.004665371935 1.968016064e-19 0.1359677616)
(0.0002364159937 2.618432278e-19 0.01944442304)
(0.0004058057897 2.061144062e-19 0.01943719927)
(0.0006379461909 -1.03979564e-17 0.01942306193)
(0.0008810410192 -2.142308709e-19 0.01940183045)
(0.001129814256 3.49980036e-19 0.01937357346)
(0.001383354479 2.801650504e-19 0.01933838275)
(0.001641758877 2.740433999e-19 0.01929638195)
(0.001905454296 3.983472569e-19 0.01924772572)
(0.002174993776 -9.842093177e-18 0.01919260097)
(0.002450978995 -1.2461526e-18 0.01913122877)
(0.002734024379 1.012765251e-17 0.01906386635)
(0.003024737137 1.175943588e-17 0.01899080915)
(0.003323703906 1.901829717e-18 0.01891239267)
(0.003631480232 7.612779533e-20 0.01882899394)
(0.003948581165 2.078907693e-19 0.01874103239)
(0.004275472166 2.701762681e-19 0.01864897001)
(0.004612559933 2.710670807e-19 0.0185533106)
(0.004960182921 2.68882996e-19 0.01845459793)
(0.005318601419 2.740151033e-19 0.01835341245)
(0.005687987097 2.820342316e-19 0.0182503668)
(0.006068411903 2.837020275e-19 0.01814609956)
(0.006459836055 2.777673872e-19 0.01804126759)
(0.006862094796 2.796811336e-19 0.01793653671)
(0.007274883339 2.771718879e-19 0.01783257133)
(0.007697739633 2.760293283e-19 0.01773002301)
(0.008130022285 2.584887757e-19 0.01762951862)
(0.008570882088 2.503314317e-19 0.0175316552)
(0.009019227004 2.671569716e-19 0.01743699116)
(0.009473675169 2.388679516e-19 0.01734605082)
(0.009932491371 2.320301146e-19 0.01725934263)
(0.01039350399 2.286547138e-19 0.01717740116)
(0.01085400033 2.575721506e-19 0.01710087213)
(0.01131060252 2.057925649e-19 0.01703065915)
(0.01175912488 1.10071465e-18 0.01696811918)
(0.01219438991 -5.844242475e-18 0.01691550681)
(0.01261046016 -4.495815229e-18 0.01687234004)
(0.01298817143 -1.082417424e-18 0.01689961653)
(0.01287755244 4.172284598e-19 0.01651852902)
(0.01085135391 4.492856538e-19 0.01535555573)
(0.004515300647 2.270168464e-19 0.1445272452)
(0.0002315551775 2.598091527e-19 0.01911371316)
(0.0003974848344 2.018637773e-19 0.01910604456)
(0.0006249175859 -1.040419925e-17 0.01909062343)
(0.0008631556659 -2.016211215e-19 0.01906737761)
(0.001107067529 3.473234168e-19 0.0190364031)
(0.001355795479 2.784150325e-19 0.0189978052)
(0.001609470425 2.729389209e-19 0.01895171879)
(0.001868547201 3.898866074e-19 0.01889831026)
(0.002133605414 -9.865548268e-18 0.01883777995)
(0.002405273494 -1.207192543e-18 0.01877036489)
(0.002684193448 1.015778317e-17 0.01869634154)
(0.002971001087 1.175246216e-17 0.01861602848)
(0.00326631262 1.858093266e-18 0.01852978888)
(0.003570713876 7.297770493e-20 0.0184380326)
(0.003884750495 2.071072745e-19 0.01834121768)
(0.004208918244 2.665339355e-19 0.01823985114)
(0.004543653123 2.675698669e-19 0.01813448871)
(0.004889321037 2.697450942e-19 0.01802573363)
(0.005246206897 2.7493323e-19 0.01791423396)
(0.005614503118 2.807260161e-19 0.01780067853)
(0.00599429744 2.802047918e-19 0.01768579144)
(0.006385559919 2.74512611e-19 0.01757032511)
(0.006788128856 2.771488881e-19 0.01745505206)
(0.007201695288 2.794023757e-19 0.01734075584)
(0.007625786287 2.724500762e-19 0.01722822098)
(0.008059743263 2.512765182e-19 0.01711822639)
(0.008502697569 2.436142542e-19 0.01701154203)
(0.008953541717 2.631320057e-19 0.01690892643)
(0.009410891427 2.355246278e-19 0.01681113958)
(0.009873038805 2.24109296e-19 0.01671897075)
(0.01033789426 2.196127438e-19 0.016633294)
(0.010802918 2.506352766e-19 0.01655516459)
(0.01126504187 2.41719888e-19 0.01648597335)
(0.01172057829 1.099071786e-18 0.01642765532)
(0.01216509733 -5.957001883e-18 0.01638316934)
(0.01259352001 -4.465504244e-18 0.01635255372)
(0.01298954762 -9.80952704e-19 0.01641166799)
(0.01282143814 4.045316764e-19 0.01585131985)
(0.01067444924 4.472867062e-19 0.01659923577)
(0.004401974335 2.063542955e-19 0.1530056702)
(0.000226239005 2.619153497e-19 0.01879018109)
(0.0003883833494 1.952626641e-19 0.01878206113)
(0.0006106659438 -1.041213896e-17 0.01876532827)
(0.0008435896606 -1.890698306e-19 0.01874002314)
(0.00108217979 3.43826611e-19 0.01870626888)
(0.001325636592 2.771246277e-19 0.01866418346)
(0.001574127194 2.710877219e-19 0.01861391195)
(0.001828136545 3.807190971e-19 0.01855563115)
(0.002088272993 -9.891516062e-18 0.01848955339)
(0.002355194128 -1.165822078e-18 0.0184159302)
(0.002629572265 1.020325507e-17 0.01833505581)
(0.002912074925 1.173021396e-17 0.01824727059)
(0.003203351397 1.809434786e-18 0.01815296423)
(0.003504021728 7.41952113e-20 0.01805257855)
(0.003814666501 2.056313541e-19 0.01794660976)
(0.004135816581 2.635353833e-19 0.01783560991)
(0.004467942482 2.617996145e-19 0.01772018738)
(0.004811443182 2.691338776e-19 0.01760100626)
(0.005166634276 2.598850832e-19 0.01747878432)
(0.005533735447 2.626389891e-19 0.01735428959)
(0.005912857284 2.704698554e-19 0.01722833547)
(0.006303987407 2.721479982e-19 0.01710177443)
(0.0067069758 2.685863916e-19 0.0169754906)
(0.007121519293 2.928927485e-19 0.01685039175)
(0.007547145219 2.775665958e-19 0.0167273998)
(0.007983191978 2.551429331e-19 0.01660744908)
(0.008428788787 2.51004485e-19 0.01649148137)
(0.008882833317 2.246660874e-19 0.01638044966)
(0.009343964588 2.54758477e-19 0.01627533443)
(0.009810532707 2.450998824e-19 0.01617717664)
(0.01028056531 2.451986589e-19 0.01608713889)
(0.01075173272 2.389911752e-19 0.01600660654)
(0.01122131228 2.741727315e-19 0.01593734336)
(0.01168614507 1.042390911e-18 0.01588170946)
(0.01214258701 -6.045808673e-18 0.01584315512)
(0.01258662852 -4.442191789e-18 0.01582212539)
(0.01300590986 -8.568952456e-19 0.0159060652)
(0.01279270591 4.001404023e-19 0.01517337451)
(0.01054089036 5.653740693e-19 0.0179089008)
(0.004313349566 1.840401421e-19 0.1614371475)
(0.0002204575333 2.627470589e-19 0.01847447848)
(0.0003784841155 1.968050232e-19 0.01846589875)
(0.0005951638735 -1.041637198e-17 0.01844782451)
(0.0008223045538 -1.749453639e-19 0.01842041286)
(0.001055100718 3.437634742e-19 0.01838381366)
(0.001292814732 2.791263056e-19 0.01833815659)
(0.001535652357 2.747811368e-19 0.01828359555)
(0.001784130709 3.767164179e-19 0.01822031617)
(0.002038889016 -9.912647385e-18 0.01814854107)
(0.002300616433 -1.112612855e-18 0.01806853446)
(0.002570018367 1.024180859e-17 0.01798060653)
(0.002847797268 1.172700669e-17 0.01788511771)
(0.0031346392 1.768930961e-18 0.01778248267)
(0.003431202615 7.881091208e-20 0.01767317395)
(0.003738107725 2.175517141e-19 0.01755772506)
(0.004055925687 2.730708825e-19 0.01743673275)
(0.00438516722 2.723890662e-19 0.01731085832)
(0.00472627054 2.707530705e-19 0.01718082767)
(0.005079588541 2.78422037e-19 0.0170474301)
(0.005445375254 2.873664392e-19 0.01691151542)
(0.005823771673 2.879468716e-19 0.01677398963)
(0.006214791052 2.834289099e-19 0.01663580921)
(0.006618303753 2.848270199e-19 0.01649797422)
(0.007034021997 2.912180296e-19 0.01636152066)
(0.007461483754 2.791049179e-19 0.01622751163)
(0.007900036189 2.733641803e-19 0.01609703775)
(0.00834881986 2.673326011e-19 0.01597121046)
(0.008806752612 2.676608679e-19 0.01585116889)
(0.009272513524 2.559896102e-19 0.01573809647)
(0.009744528659 2.49154123e-19 0.01563325455)
(0.0102209605 2.453383453e-19 0.01553804209)
(0.01069970547 2.471751069e-19 0.01545409549)
(0.01117840399 2.55670223e-19 0.01538343694)
(0.01165445679 1.073394447e-18 0.01532869351)
(0.01212500861 -6.215215095e-18 0.01529361511)
(0.01258714602 -4.351880092e-18 0.01527878613)
(0.01303232601 -7.750291272e-19 0.01537964275)
(0.01277888252 4.624269037e-19 0.01447845652)
(0.01043251839 4.691163723e-19 0.01927537463)
(0.004240440881 1.355608593e-19 0.1698441318)
(0.0002142004805 2.620818252e-19 0.01816727132)
(0.0003677693215 1.904557545e-19 0.01815822169)
(0.0005783830133 -1.042506002e-17 0.01813877505)
(0.0007992604715 -1.600621369e-19 0.01810920804)
(0.001025778012 3.400849554e-19 0.01806969655)
(0.00125726415 2.789088021e-19 0.01802038077)
(0.001493965574 2.753728474e-19 0.01796142183)
(0.001736433519 3.67771482e-19 0.01789301233)
(0.001985340164 -9.941548725e-18 0.01781538313)
(0.002241408618 -1.063548852e-18 0.01772880893)
(0.002505380194 1.028459481e-17 0.01763361368)
(0.002777995585 1.17101795e-17 0.01753017572)
(0.003059981494 1.716982708e-18 0.01741893271)
(0.003352039217 8.60393328e-20 0.01730038618)
(0.003654833622 2.211840578e-19 0.01717510562)
(0.003968981758 2.723453715e-19 0.0170437317)
(0.004295040718 2.718997113e-19 0.01690697845)
(0.004633494649 2.703562653e-19 0.0167656342)
(0.004984740931 2.770710074e-19 0.0166205611)
(0.005349075561 2.693389824e-19 0.01647269294)
(0.00572667795 2.804505289e-19 0.01632303131)
(0.006117595347 2.819969758e-19 0.01617264028)
(0.006521727165 2.781940171e-19 0.01602263969)
(0.006938809984 2.779388539e-19 0.01587419723)