/*--------------------------------*- C++ -*----------------------------------*\
| =========                 |                                                 |
| \\      /  F ield         | OpenFOAM: The Open Source CFD Toolbox           |
|  \\    /   O peration     | Version:  v1912                                 |
|   \\  /    A nd           | Website:  www.openfoam.com                      |
|    \\/     M anipulation  |                                                 |
\*---------------------------------------------------------------------------*/
FoamFile
{
    version     2.0;
    format      ascii;
    class       volVectorField;
    location    "0.4";
    object      U.liquid_0;
}
// * * * * * * * * * * * * * * * * * * * * * * * * * * * * * * * * * * * * * //

dimensions      [0 1 -1 0 0 0 0];


internalField   nonuniform List<vector> 
4800
(
(0.0002539154548 2.630646323e-19 -0.000179355213)
(0.0004370984071 2.170441314e-19 -0.0001805749419)
(0.0006879607972 -1.000804304e-17 -0.0001812662896)
(0.0009501909517 -2.493630388e-19 -0.0001821556373)
(0.001217879967 3.421777025e-19 -0.0001832991155)
(0.001489845223 2.731695736e-19 -0.0001847071637)
(0.001765994183 2.64336598e-19 -0.0001863792507)
(0.002046586718 4.300279279e-19 -0.0001883102058)
(0.002332014433 -9.413052214e-18 -0.0001904921981)
(0.002622716941 -1.393163952e-18 -0.0001929153811)
(0.002919143894 9.604049854e-18 -0.0001955681856)
(0.003221734977 1.139280924e-17 -0.0001984374524)
(0.003530907774 2.023330318e-18 -0.0002015084751)
(0.003847049464 7.259943872e-20 -0.000204765062)
(0.004170510611 1.883893541e-19 -0.0002081896276)
(0.004501600329 2.65949218e-19 -0.000211763331)
(0.004840582501 2.686385312e-19 -0.0002154662798)
(0.005187673045 2.796324312e-19 -0.0002192778276)
(0.005543038373 2.707985272e-19 -0.0002231769841)
(0.005906795319 2.593713071e-19 -0.0002271429907)
(0.006279013051 2.618024545e-19 -0.0002311561212)
(0.006659717614 2.635102226e-19 -0.0002351987756)
(0.00704890012 2.606155978e-19 -0.0002392570178)
(0.007446530075 2.546931635e-19 -0.0002433227717)
(0.007852576054 2.678109671e-19 -0.0002473969552)
(0.008267037142 2.628473126e-19 -0.0002514941411)
(0.008689990578 2.600928185e-19 -0.0002556495974)
(0.0091216644 2.835249887e-19 -0.0002599302227)
(0.009562549764 2.774384291e-19 -0.0002644520416)
(0.01001357815 2.728944418e-19 -0.0002694090281)
(0.01047640813 2.729201985e-19 -0.0002751222013)
(0.01095390366 2.492120588e-19 -0.0002821262225)
(0.01145096142 1.867999386e-19 -0.0002913292527)
(0.01197597701 1.088092356e-18 -0.0003043031698)
(0.01254358505 -4.692968135e-18 -0.0003238868299)
(0.01317560458 -4.548893626e-18 -0.0003524258442)
(0.01394775847 -2.043487101e-18 -0.0004244837745)
(0.01455878974 -1.475830873e-19 -0.0002523858415)
(0.01945704383 4.298207855e-19 -0.003328082004)
(0.01187680322 3.751607926e-19 0.008099196967)
(0.0002617791977 2.718062537e-19 -0.0005436204798)
(0.0004491644032 2.179556141e-19 -0.0005463073143)
(0.000705941865 -1.033202729e-17 -0.0005483547007)
(0.0009745651607 -2.725825967e-19 -0.0005510442014)
(0.00124889059 3.566214249e-19 -0.000554517009)
(0.001527685281 2.843124971e-19 -0.000558798866)
(0.001810852519 2.732479622e-19 -0.0005638865231)
(0.002098664516 4.36124906e-19 -0.0005697639985)
(0.002391532729 -9.703429681e-18 -0.0005764077479)
(0.00268992063 -1.467507725e-18 -0.0005837883232)
(0.002994304246 9.891078614e-18 -0.0005918712458)
(0.003305151519 1.176953114e-17 -0.0006006173416)
(0.003622909825 2.138202252e-18 -0.0006099828247)
(0.003947997497 8.46223121e-20 -0.0006199195117)
(0.00428079762 1.916469629e-19 -0.0006303751002)
(0.004621653271 2.744525332e-19 -0.0006412935943)
(0.004970863879 2.78265845e-19 -0.0006526159317)
(0.005328682696 2.714645862e-19 -0.000664280885)
(0.005695315505 2.710978772e-19 -0.0006762263163)
(0.006070920881 2.662267294e-19 -0.0006883909284)
(0.006455612485 2.71300997e-19 -0.000700716679)
(0.006849464051 2.703856413e-19 -0.0007131520952)
(0.007252518082 2.719003475e-19 -0.0007256568988)
(0.007664799645 2.741086875e-19 -0.0007382085624)
(0.008086337437 2.72375286e-19 -0.0007508116866)
(0.008517195308 2.865121826e-19 -0.000763511804)
(0.008957519218 2.933967969e-19 -0.0007764161378)
(0.009407607585 2.763093416e-19 -0.0007897256449)
(0.009868017885 2.776490306e-19 -0.0008037858662)
(0.01033973098 2.85320548e-19 -0.0008191700068)
(0.01082440976 2.879730318e-19 -0.000836818933)
(0.01132481574 2.632799648e-19 -0.0008582847854)
(0.01184549381 1.743720821e-19 -0.000886170366)
(0.01239392769 1.112500842e-18 -0.0009249224431)
(0.01298288677 -4.743937323e-18 -0.0009826556641)
(0.01363527952 -4.713768069e-18 -0.001068765576)
(0.0144235291 -2.164496576e-18 -0.001281702695)
(0.01507094185 -1.2366394e-19 -0.0007823518479)
(0.01735047787 3.921473568e-19 -0.008194622261)
(0.00956276143 3.699787698e-19 0.02287349096)
(0.0002611911878 2.616282633e-19 -0.0009130251966)
(0.000448132753 2.187694443e-19 -0.0009161906273)
(0.0007042318203 -1.033567063e-17 -0.0009195153482)
(0.0009721134578 -2.711699304e-19 -0.0009240196263)
(0.001245704365 3.58272521e-19 -0.0009298676402)
(0.001523784776 2.823884271e-19 -0.0009370888157)
(0.00180626286 2.735011325e-19 -0.0009456737665)
(0.002093414108 4.357629521e-19 -0.0009555947022)
(0.002385653112 -9.705086181e-18 -0.0009668121263)
(0.002683446775 -1.463333151e-18 -0.0009792771377)
(0.002987274906 9.900915322e-18 -0.0009929325942)
(0.003297609318 1.177244875e-17 -0.001007713563)
(0.003614901242 2.134831985e-18 -0.001023547489)
(0.003939572814 7.778121424e-20 -0.001040354534)
(0.004272010739 1.957434395e-19 -0.001058048028)
(0.004612561353 2.738024903e-19 -0.001076535171)
(0.00496152676 2.767415514e-19 -0.001095718078)
(0.005319162016 2.611142328e-19 -0.001115495266)
(0.00568567347 2.657902589e-19 -0.001135763741)
(0.006061218521 2.732581075e-19 -0.001156421885)
(0.006445907221 2.799631186e-19 -0.001177373424)
(0.00683980629 2.667025711e-19 -0.00119853286)
(0.007242946376 2.731862116e-19 -0.001219832995)
(0.007655333711 2.668669963e-19 -0.001241235511)
(0.008076967864 2.800882822e-19 -0.001262746026)
(0.008507867997 2.834796846e-19 -0.001284435997)
(0.008948111242 2.790078067e-19 -0.001306475338)
(0.009397888647 2.869166609e-19 -0.00132918216)
(0.009857586861 2.865964285e-19 -0.001353100531)
(0.01032790794 2.533563836e-19 -0.001379125374)
(0.01081004578 2.326563508e-19 -0.00140870856)
(0.01130594621 2.273926342e-19 -0.001444208624)
(0.01181868912 2.548622067e-19 -0.001489501654)
(0.01235304721 1.094451248e-18 -0.001551062075)
(0.01291615842 -4.728864698e-18 -0.001640416218)
(0.01351693516 -4.702636868e-18 -0.001772029434)
(0.01417818061 -2.054312739e-18 -0.002082857096)
(0.0147847882 -1.471910856e-19 -0.001368044285)
(0.0157749699 5.279155595e-19 -0.01036373869)
(0.008141548806 3.419878327e-19 0.03527839643)
(0.0002601019761 2.595914003e-19 -0.001281245141)
(0.0004462745568 2.147183592e-19 -0.00128487932)
(0.0007012942456 -1.033523763e-17 -0.001289410218)
(0.000968035679 -2.684400984e-19 -0.001295718697)
(0.001240481269 3.543707291e-19 -0.001303950329)
(0.001517432216 2.820530769e-19 -0.001314128385)
(0.001798807223 2.731115882e-19 -0.001326234205)
(0.002084889101 4.335678507e-19 -0.001340227136)
(0.002376098749 -9.709163696e-18 -0.001356051378)
(0.002672909084 -1.452490217e-18 -0.001373638562)
(0.00297580585 9.912678258e-18 -0.001392908887)
(0.003285266803 1.177541222e-17 -0.001413771612)
(0.003601749063 2.120329335e-18 -0.001436125342)
(0.003925680444 8.300482326e-20 -0.00145985842)
(0.004257452928 1.95215426e-19 -0.001484849515)
(0.004597417476 2.756264332e-19 -0.001510968553)
(0.004945879831 2.736060719e-19 -0.001538078118)
(0.005303097264 2.678833228e-19 -0.001566035466)
(0.005669276335 2.724148568e-19 -0.001594695334)
(0.006044571894 2.732108863e-19 -0.001623913828)
(0.006429087615 2.847270389e-19 -0.001653553733)
(0.006822878533 2.731081558e-19 -0.001683491751)
(0.007225956156 2.81160497e-19 -0.001713628429)
(0.007638296944 2.753632913e-19 -0.001743901987)
(0.008059855199 2.743049827e-19 -0.00177430779)
(0.00849058177 2.875979778e-19 -0.001804926269)
(0.008930450314 2.853338347e-19 -0.001835963853)
(0.009379493312 2.961122133e-19 -0.001867814244)
(0.009837850216 2.5998836e-19 -0.001901152113)
(0.01030582931 2.369814e-19 -0.001937079642)
(0.01078398136 2.669373858e-19 -0.001977360639)
(0.01127317254 2.245932752e-19 -0.002024802689)
(0.01177461511 1.773700313e-19 -0.002083895186)
(0.01228973816 1.129837598e-18 -0.002161879963)
(0.01281958446 -4.84017106e-18 -0.002270975451)
(0.01336275407 -4.701923459e-18 -0.002424643418)
(0.0139047024 -1.951668803e-18 -0.002761414923)
(0.01444760005 -3.681918364e-20 -0.001992897103)
(0.01498735002 5.284879759e-19 -0.01130480363)
(0.007527861009 3.034561536e-19 0.04635396576)
(0.0002586180643 2.600602054e-19 -0.001647647525)
(0.0004437241137 2.178143048e-19 -0.001651752387)
(0.0006972788213 -1.033809424e-17 -0.001657463734)
(0.0009624960366 -2.673702032e-19 -0.001665573803)
(0.001233412862 3.571798394e-19 -0.001676201968)
(0.001508853694 2.82481599e-19 -0.001689359813)
(0.001788750858 2.733204044e-19 -0.001705017117)
(0.002073397312 4.313919167e-19 -0.001723119441)
(0.002363222789 -9.712314811e-18 -0.001743594372)
(0.002658708564 -1.439917677e-18 -0.001766353955)
(0.002960348571 9.92396443e-18 -0.001791295711)
(0.003268628683 1.177616252e-17 -0.00181830308)
(0.003584013996 2.106312189e-18 -0.001847245711)
(0.003906939995 8.040943421e-20 -0.001877979878)
(0.004237805787 1.970315655e-19 -0.001910349155)
(0.004576968577 2.726681175e-19 -0.001944185506)
(0.004924739041 2.735747418e-19 -0.001979310974)
(0.005281377502 2.712332062e-19 -0.002015540107)
(0.00564709095 2.692518747e-19 -0.002052683371)
(0.00602203104 2.705159971e-19 -0.002090551833)
(0.006406293287 2.717913784e-19 -0.002128963542)
(0.006799917734 2.760626912e-19 -0.002167752157)
(0.007202891409 2.780216086e-19 -0.002206778643)
(0.007615152925 2.809238327e-19 -0.002245947338)
(0.008036599573 2.797005095e-19 -0.002285228264)
(0.008467097171 2.861362895e-19 -0.002324688515)
(0.008906492537 2.830889297e-19 -0.002364537242)
(0.009354627549 2.940569956e-19 -0.00240519133)
(0.009811351771 2.649904447e-19 -0.002447372817)
(0.01027652599 2.288870346e-19 -0.002492255772)
(0.0107499988 2.203309655e-19 -0.002541690533)
(0.01123151592 2.611231718e-19 -0.00259854963)
(0.01172048072 1.830686938e-19 -0.002667270432)
(0.01221546812 1.133614395e-18 -0.002754738194)
(0.01271295374 -4.96092475e-18 -0.00287182889)
(0.01320610468 -4.690036823e-18 -0.003029362603)
(0.01366501628 -1.835407898e-18 -0.003343762818)
(0.01414440943 1.04490511e-19 -0.002615962406)
(0.01442779274 4.874759785e-19 -0.01175612015)
(0.007133686373 2.921153265e-19 0.05680225259)
(0.0002567296261 2.597673335e-19 -0.002011667815)
(0.0004404792551 2.147378411e-19 -0.002016234006)
(0.0006921822843 -1.034015892e-17 -0.002023118702)
(0.0009554831841 -2.607561324e-19 -0.00203303687)
(0.001224480676 3.521959114e-19 -0.002046080965)
(0.001498024851 2.820159636e-19 -0.002062248461)
(0.001776064131 2.737683107e-19 -0.002081496189)
(0.00205890404 4.286710332e-19 -0.002103755286)
(0.002346985487 -9.726172655e-18 -0.002128936505)
(0.002640800381 -1.422601471e-18 -0.002156932253)
(0.00294085309 9.933400537e-18 -0.002187617386)
(0.003247639819 1.17644002e-17 -0.002220849511)
(0.00356163582 2.086435141e-18 -0.002256469196)
(0.003883286371 8.289781547e-20 -0.002294300343)
(0.004212999714 1.95980731e-19 -0.002334150893)
(0.004551141143 2.69163231e-19 -0.002375813995)
(0.004898027848 2.724232768e-19 -0.002419069883)
(0.005253924423 2.675671893e-19 -0.00246368861)
(0.005619039003 2.724636515e-19 -0.002509433879)
(0.005993520107 2.699305906e-19 -0.002556068316)
(0.006377454285 2.770360301e-19 -0.002603360589)
(0.00677086469 2.765753769e-19 -0.002651094957)
(0.007173710606 2.878677135e-19 -0.00269908404)
(0.00758588788 2.806891588e-19 -0.002747186029)
(0.008007229944 2.792126454e-19 -0.002795328165)
(0.008437508686 2.838137917e-19 -0.002843538976)
(0.008876433415 2.87208657e-19 -0.002891993135)
(0.009323644427 2.845509936e-19 -0.002941074862)
(0.009778694293 2.440336343e-19 -0.002991468302)
(0.01024100364 2.248220122e-19 -0.003044287514)
(0.01070976584 2.605539319e-19 -0.003101263219)
(0.01118375383 2.545620096e-19 -0.003165010922)
(0.01166098342 1.735392401e-19 -0.003239445755)
(0.01213793715 1.100489053e-18 -0.003330315047)
(0.01260801908 -5.034267972e-18 -0.003446008449)
(0.01306101149 -4.625049253e-18 -0.003594898185)
(0.01346281646 -1.735660886e-18 -0.003863714872)
(0.01392014749 1.580532866e-19 -0.003233728321)
(0.01398613023 5.2839196e-19 -0.0118791551)
(0.00680599422 2.671702443e-19 0.06679935418)
(0.0002544338542 2.606803281e-19 -0.002372732543)
(0.000436537355 2.177421665e-19 -0.002377751005)
(0.000685998269 -1.034237061e-17 -0.002385811727)
(0.0009469839477 -2.525761928e-19 -0.002397552241)
(0.001213664574 3.516176986e-19 -0.002413038351)
(0.001484919061 2.809769511e-19 -0.002432252554)
(0.001760714249 2.726990746e-19 -0.002455138064)
(0.002041370463 4.255623331e-19 -0.002481611274)
(0.002327342 -9.736697568e-18 -0.002511566038)
(0.002619133636 -1.399586353e-18 -0.002544875178)
(0.002917262431 9.96425695e-18 -0.002581390963)
(0.003222237201 1.175845189e-17 -0.002620945193)
(0.003534545647 2.063502826e-18 -0.002663349241)
(0.00385464512 8.088041775e-20 -0.002708394322)
(0.004182955228 1.959955938e-19 -0.002755852142)
(0.004519851473 2.715236328e-19 -0.002805476064)
(0.004865659511 2.73603734e-19 -0.002857003071)
(0.005220649896 2.70847139e-19 -0.002910156657)
(0.00558503325 2.730768218e-19 -0.002964650926)
(0.005958955856 2.6983146e-19 -0.003020196187)
(0.00634249566 2.801745176e-19 -0.003076506499)
(0.006735658657 2.758359525e-19 -0.003133309663)
(0.00713837548 2.791344812e-19 -0.003190360363)
(0.007550497759 2.830654911e-19 -0.003247457516)
(0.007971793438 2.766738925e-19 -0.003304467361)
(0.008401939531 2.866735263e-19 -0.003361354231)
(0.008840509509 2.865104079e-19 -0.003418221869)
(0.009286950345 2.734282224e-19 -0.003475369355)
(0.00974054044 2.566612224e-19 -0.003533366918)
(0.01020031361 2.596987897e-19 -0.003593158665)
(0.01066492318 2.54413385e-19 -0.003656198377)
(0.01113242368 2.458320712e-19 -0.003724640996)
(0.0115998409 1.678361068e-19 -0.003801584498)
(0.0120624053 1.124182315e-18 -0.003891232169)
(0.01251224046 -5.165667297e-18 -0.003999147993)
(0.01293734011 -4.618444355e-18 -0.004130966601)
(0.0132987702 -1.615932752e-18 -0.004341324761)
(0.01372391517 1.580219481e-19 -0.003849229677)
(0.01359628602 5.137379548e-19 -0.01171530775)
(0.00652432345 2.930419524e-19 0.07640853177)
(0.0002517267566 2.608414121e-19 -0.002730263441)
(0.0004318920694 2.130077125e-19 -0.002735727254)
(0.0006787155603 -1.034475257e-17 -0.002744972883)
(0.0009369805037 -2.482141461e-19 -0.002758556387)
(0.001200939611 3.51418483e-19 -0.002776517036)
(0.001469504251 2.811422746e-19 -0.002798822161)
(0.001742662052 2.735702727e-19 -0.002825401173)
(0.002020750294 4.210084786e-19 -0.002856155698)
(0.002304238828 -9.748404231e-18 -0.002890962804)
(0.002593647514 -1.377999592e-18 -0.002929675916)
(0.0028895084 9.989465312e-18 -0.002972124891)
(0.003192345277 1.175910499e-17 -0.003018115818)
(0.00350266072 2.038121108e-18 -0.003067430823)
(0.003820926619 8.168593349e-20 -0.003119828136)
(0.00414757643 1.978493973e-19 -0.003175042614)
(0.004482998308 2.690841942e-19 -0.003232786814)
(0.004827528739 2.716577168e-19 -0.003292752909)
(0.005181446464 2.758460608e-19 -0.003354615616)
(0.005544966628 2.747738427e-19 -0.003418036371)
(0.00591823509 2.708866129e-19 -0.003482669036)
(0.006301322779 2.810115631e-19 -0.003548167517)
(0.006694219959 2.786983519e-19 -0.003614195798)
(0.007096830054 2.81703146e-19 -0.003680440847)
(0.007508962371 2.852204488e-19 -0.003746629224)
(0.007930322536 2.802849899e-19 -0.003812548569)
(0.008360498723 2.858008558e-19 -0.00387807519)
(0.008798940358 2.763102097e-19 -0.003943209452)
(0.009244923917 2.643517458e-19 -0.004008121148)
(0.009697496598 2.545793745e-19 -0.004073206671)
(0.0101553845 2.412484517e-19 -0.004139161115)
(0.01061684666 2.522205703e-19 -0.004207063721)
(0.0110794391 2.294530809e-19 -0.004278496889)
(0.01153961654 1.717273176e-19 -0.004355598079)
(0.01199214988 1.099790261e-18 -0.004441040517)
(0.0124291933 -5.259219814e-18 -0.004537838377)
(0.01283924084 -4.583490845e-18 -0.004648583218)
(0.01318326897 -1.503151311e-18 -0.004793639915)
(0.01356556268 2.065118295e-19 -0.004433389942)
(0.01326115196 5.128021009e-19 -0.01132213648)
(0.006289579515 2.673257106e-19 0.0856842253)
(0.0002486031477 2.602372973e-19 -0.003083675759)
(0.000426534505 2.123360434e-19 -0.00308958048)
(0.0006703194033 -1.034966518e-17 -0.003100024474)
(0.000925451088 -2.428894394e-19 -0.00311547703)
(0.001186276438 3.529847253e-19 -0.003135950778)
(0.001451743238 2.810923551e-19 -0.003161397988)
(0.001721862351 2.737065024e-19 -0.003191734404)
(0.001996990162 4.163911194e-19 -0.003226847116)
(0.00227761422 -9.757034754e-18 -0.00326659671)
(0.002564271702 -1.347718066e-18 -0.003310817553)
(0.002857511993 1.000373884e-17 -0.003359317402)
(0.003157876324 1.175514916e-17 -0.003411876842)
(0.003465884725 2.010707645e-18 -0.003468248785)
(0.003782026305 7.698577212e-20 -0.003528158257)
(0.004106751118 2.005228825e-19 -0.003591302693)
(0.004440462776 2.71144869e-19 -0.003657352827)
(0.004783511408 2.731296433e-19 -0.003725954445)
(0.005136186743 2.703131332e-19 -0.003796731207)
(0.005498711219 2.682039071e-19 -0.00386928873)
(0.005871233007 2.778122902e-19 -0.003943220199)
(0.006253818818 2.803983626e-19 -0.004018113803)
(0.006646446215 2.776899326e-19 -0.004093562417)
(0.007048995015 2.841954494e-19 -0.004169175826)
(0.007461236996 2.873005829e-19 -0.004244595981)
(0.007882822588 2.82529301e-19 -0.004319516031)
(0.008313262481 2.881712237e-19 -0.00439370373)
(0.008751901168 2.664606084e-19 -0.004467029876)
(0.009197876007 2.608689052e-19 -0.004539501158)
(0.009650055115 2.530564299e-19 -0.004611298946)
(0.01010694329 2.44516078e-19 -0.004682821633)
(0.0105665415 2.408542527e-19 -0.004754727918)
(0.01102612368 2.743339293e-19 -0.004827975282)
(0.01148191022 1.944346087e-19 -0.004903763339)
(0.01192865337 1.12272411e-18 -0.004983424632)
(0.0123591137 -5.434998628e-18 -0.005067991917)
(0.01276437884 -4.590460987e-18 -0.005158143702)
(0.01311716681 -1.383202745e-18 -0.005244730518)
(0.0135617612 3.194306268e-19 -0.005028533801)
(0.01310427358 4.959022534e-19 -0.01068940633)
(0.006113963633 2.594710365e-19 0.09469111743)
(0.0002450567099 2.602982271e-19 -0.00343237662)
(0.0004204537365 2.091099185e-19 -0.00343872022)
(0.0006607921253 -1.035411365e-17 -0.003450379748)
(0.00091237039 -2.321422043e-19 -0.003467732118)
(0.001169641526 3.527230055e-19 -0.003490763113)
(0.001431593879 2.821449695e-19 -0.003519410192)
(0.001698264067 2.747339875e-19 -0.003553575808)
(0.001970029735 4.122516444e-19 -0.003593132959)
(0.002247398283 -9.773488754e-18 -0.003637926255)
(0.002530926466 -1.31574387e-18 -0.00368777152)
(0.002821183412 1.00294917e-17 -0.003742454886)
(0.003118730379 1.175067355e-17 -0.003801731794)
(0.003424107598 1.981239998e-18 -0.003865326111)
(0.003737824308 7.957274109e-20 -0.003932929556)
(0.004060350214 2.058500913e-19 -0.004004201669)
(0.00439210756 2.73940292e-19 -0.004078770423)
(0.004733463404 2.754899251e-19 -0.004156233696)
(0.005084721846 2.747780851e-19 -0.004236161849)
(0.005446116105 2.712612883e-19 -0.004318101579)
(0.005817800321 2.814684862e-19 -0.004401581242)
(0.006199840913 2.921093245e-19 -0.004486117916)
(0.006592207188 2.875696501e-19 -0.004571226453)
(0.006994760753 2.888910378e-19 -0.004656430713)
(0.007407242948 2.900472049e-19 -0.004741277126)
(0.007829258965 2.902943536e-19 -0.004825350834)
(0.008260257127 2.941775417e-19 -0.00490829484)
(0.008699499482 2.627296816e-19 -0.004989830716)
(0.009146018888 2.821213327e-19 -0.005069779186)
(0.009598558573 2.502159144e-19 -0.005148083328)
(0.01005548467 2.429333126e-19 -0.005224824247)
(0.01051465834 2.38140371e-19 -0.005300228718)
(0.01097324966 2.724080341e-19 -0.005374642719)
(0.01142749295 2.169415403e-19 -0.005448422424)
(0.01187238974 1.137537805e-18 -0.005521772891)
(0.01230140302 -5.52524653e-18 -0.005594276329)
(0.01270765368 -4.557978417e-18 -0.005666456372)
(0.0130730664 -1.2566268e-18 -0.005709077232)
(0.01357377358 3.584336296e-19 -0.005688766306)
(0.01299499955 5.133220934e-19 -0.009805501339)
(0.005980491244 2.167819015e-19 0.1034916255)
(0.0002410801466 2.526647356e-19 -0.003775763531)
(0.0004136371645 2.018053854e-19 -0.00378254627)
(0.0006501135714 -1.035844445e-17 -0.003795441662)
(0.0008977099107 -2.208372538e-19 -0.003814728747)
(0.001150997442 3.488939084e-19 -0.003840366253)
(0.001409009313 2.837986588e-19 -0.003872277204)
(0.001671810454 2.779639377e-19 -0.003910351311)
(0.001939801938 4.093588827e-19 -0.003954448142)
(0.002213513176 -9.793974208e-18 -0.004004397041)
(0.002493522796 -1.278690689e-18 -0.004059996007)
(0.002780422158 1.007524659e-17 -0.004121010216)
(0.003074795242 1.173990853e-17 -0.004187170515)
(0.003377205407 1.953774618e-18 -0.004258172081)
(0.003688185172 8.51138715e-20 -0.004333673397)
(0.004008227259 2.134036073e-19 -0.00441329579)
(0.004337776118 2.80232868e-19 -0.004496623676)
(0.004677219496 2.831836781e-19 -0.004583205634)
(0.005026879826 2.814187835e-19 -0.004672556626)
(0.005387005301 2.940811587e-19 -0.004764161475)
(0.005757760518 2.88633869e-19 -0.004857479783)
(0.006139216532 2.896731904e-19 -0.004951952456)
(0.006531340024 2.937595001e-19 -0.00504700998)
(0.00693398118 2.94362701e-19 -0.005142082526)
(0.007346859571 2.707483459e-19 -0.005236611703)
(0.007769546933 2.983132771e-19 -0.005330063842)
(0.008201445809 2.814415363e-19 -0.005421945464)
(0.008641758948 2.654539293e-19 -0.005511814906)
(0.009089449166 2.629536665e-19 -0.005599295273)
(0.009543185358 2.537139036e-19 -0.005684082627)
(0.01000126564 2.832014105e-19 -0.00576594081)
(0.01046151068 2.817663416e-19 -0.005844679501)
(0.01092111989 2.753688489e-19 -0.005920088386)
(0.01137649652 2.499663739e-19 -0.005991801247)
(0.01182305404 1.102098012e-18 -0.006059107694)
(0.01225503837 -5.601794744e-18 -0.006120505324)
(0.01266598414 -4.555488251e-18 -0.006176685756)
(0.01303760564 -1.108847316e-18 -0.006182490014)
(0.01352721364 3.725458563e-19 -0.006368865852)
(0.01285699118 5.149181832e-19 -0.008754612799)
(0.005875161677 2.008262478e-19 0.1121280445)
(0.0002366653351 2.618466341e-19 -0.004113223109)
(0.0004060707809 2.061168348e-19 -0.004120447413)
(0.0006382614436 -1.03645157e-17 -0.00413460176)
(0.0008814382958 -2.142462026e-19 -0.004155862109)
(0.001130303156 3.499872608e-19 -0.004184160016)
(0.001383938253 2.801688513e-19 -0.004219404563)
(0.001642439393 2.740466507e-19 -0.004261473456)
(0.001906233234 3.983576493e-19 -0.004310213693)
(0.00217587337 -9.80862528e-18 -0.004365440288)
(0.002451962631 -1.24620917e-18 -0.004426934358)
(0.00273511717 1.00941771e-17 -0.004494441027)
(0.003025946516 1.172602681e-17 -0.004567667332)
(0.003325040263 1.901898283e-18 -0.004646280341)
(0.003632957597 7.612798732e-20 -0.004729905596)
(0.003950217947 2.078899974e-19 -0.00481812612)
(0.004277291932 2.701789387e-19 -0.004910482178)
(0.00461459224 2.710700135e-19 -0.005006471874)
(0.00496246417 2.688857228e-19 -0.005105552875)
(0.005321175736 2.740185036e-19 -0.005207145426)
(0.005690907231 2.82038207e-19 -0.005310636758)
(0.006071740116 2.837056591e-19 -0.005415386989)
(0.006463645011 2.777708942e-19 -0.005520736584)
(0.006866468433 2.796842782e-19 -0.005626015315)
(0.007279917755 2.771758841e-19 -0.005730552333)
(0.007703543928 2.760330516e-19 -0.005833687203)
(0.00813671961 2.584895571e-19 -0.005934781286)
(0.008578610881 2.503322041e-19 -0.00603322224)
(0.009028142476 2.671600762e-19 -0.006128432277)
(0.009483951454 2.388696601e-19 -0.006219862774)
(0.00994432524 2.320318173e-19 -0.006306974838)
(0.01040711995 2.286562889e-19 -0.006389195927)
(0.01086965693 2.575744364e-19 -0.006465832262)
(0.01132860328 2.057903006e-19 -0.00653591896)
(0.01177983661 1.100733629e-18 -0.006598019259)
(0.01221827536 -5.810701522e-18 -0.006649771082)
(0.01263800907 -4.49589357e-18 -0.006691510383)
(0.0130209076 -1.082493048e-18 -0.006661984095)
(0.013515775 4.172071335e-19 -0.007037789787)
(0.01278086184 4.494453751e-19 -0.007604798053)
(0.005806884442 2.277380609e-19 0.1206424943)
(0.000231803452 2.598120596e-19 -0.004444130001)
(0.0003977393853 2.018661077e-19 -0.004451800358)
(0.0006252115971 -1.037075822e-17 -0.004467239157)
(0.0008635216669 -2.016360188e-19 -0.004490514494)
(0.001107514388 3.473304515e-19 -0.004521530786)
(0.001356325342 2.784186762e-19 -0.004560183804)
(0.001610083745 2.729421434e-19 -0.004606340175)
(0.001869243985 3.8989679e-19 -0.004659835402)
(0.002134385993 -9.832080597e-18 -0.004720471344)
(0.002406139163 -1.207248316e-18 -0.004788013448)
(0.00268514707 1.012430851e-17 -0.004862187951)
(0.002972047743 1.171905262e-17 -0.004942679145)
(0.0032674603 1.858160148e-18 -0.005029126846)
(0.003571974242 7.297789501e-20 -0.005121124234)
(0.003886139704 2.071063121e-19 -0.005218216218)
(0.004210457839 2.66536418e-19 -0.005319898591)
(0.004545370987 2.675726079e-19 -0.00542561807)
(0.004891252398 2.697485853e-19 -0.005534773423)
(0.005248395381 2.749373819e-19 -0.005646717922)
(0.005617001839 2.807297103e-19 -0.005760763174)
(0.005997170112 2.802081996e-19 -0.005876184392)
(0.00638888199 2.745158892e-19 -0.00599222706)
(0.006791988665 2.771533908e-19 -0.00610811487)
(0.007206195244 2.794059497e-19 -0.006223058386)
(0.007631044074 2.724535696e-19 -0.006336264863)
(0.008065893331 2.512815346e-19 -0.006446944209)
(0.008509892814 2.436160199e-19 -0.006554312041)
(0.008961955526 2.631348982e-19 -0.006657591557)
(0.009420720634 2.355282998e-19 -0.006755999984)
(0.009884508296 2.241109914e-19 -0.006848719947)
(0.0103512636 2.196143731e-19 -0.006934843096)
(0.01081848997 2.506374863e-19 -0.007013271577)
(0.01128317636 2.417200535e-19 -0.007082561458)
(0.01174171565 1.099089228e-18 -0.007140710898)
(0.01218979924 -5.923450026e-18 -0.007184674074)
(0.01262243096 -4.465587939e-18 -0.007214299542)
(0.0130244617 -9.810332313e-19 -0.007153518555)
(0.01353512877 4.045204275e-19 -0.007708627485)
(0.01275311441 4.473388206e-19 -0.006374311818)
(0.005768540054 2.069512856e-19 0.1290786376)
(0.0002264851055 2.619185629e-19 -0.004767845987)
(0.0003886267944 1.95265357e-19 -0.00477596884)
(0.0006109383339 -1.037869668e-17 -0.00479271965)
(0.0008439239786 -1.890852779e-19 -0.004818054391)
(0.001082584007 3.438324122e-19 -0.004851850552)
(0.001326111583 2.771269654e-19 -0.004893991403)
(0.00157467181 2.710895081e-19 -0.00494433361)
(0.001828748901 3.807276707e-19 -0.005002702502)
(0.002088951269 -9.858050902e-18 -0.005068888223)
(0.002355937234 -1.165878923e-18 -0.005142642051)
(0.002630380492 1.01697788e-17 -0.005223672816)
(0.002912950634 1.169680122e-17 -0.005311643447)
(0.003204299778 1.809498664e-18 -0.00540616771)
(0.003505051632 7.41926675e-20 -0.005506807329)
(0.00381579136 2.056275625e-19 -0.005613069627)
(0.004137055407 2.635349222e-19 -0.005724405948)
(0.004469320954 2.617985118e-19 -0.00584021104)
(0.004812994804 2.691371044e-19 -0.005959823502)
(0.005168401607 2.598844559e-19 -0.006082527594)
(0.00553577139 2.626371886e-19 -0.006207556454)
(0.005915226429 2.704681391e-19 -0.006334096749)
(0.006306767409 2.721446947e-19 -0.006461294669)
(0.006710258808 2.685814062e-19 -0.006588263034)
(0.007125413403 2.928869594e-19 -0.006714088981)
(0.007551776063 2.77558837e-19 -0.00683784323)
(0.007988704535 2.551309453e-19 -0.006958581122)
(0.008435349402 2.509892952e-19 -0.007075347607)
(0.008890632233 2.246447894e-19 -0.007187172845)
(0.009353219404 2.547346925e-19 -0.007293055544)
(0.009821493463 2.450723319e-19 -0.007391929516)
(0.01029352212 2.451639744e-19 -0.007482602335)
(0.01076702582 2.38950816e-19 -0.00756365282)
(0.01123934754 2.741225969e-19 -0.007633274192)
(0.01170742048 1.042351571e-18 -0.0076890555)
(0.01216773667 -6.012177994e-18 -0.007727484078)
(0.01261641245 -4.442367297e-18 -0.007748041893)
(0.01304232906 -8.570748604e-19 -0.007663132956)
(0.01357694857 3.978497581e-19 -0.008388760077)
(0.0127599056 5.587544983e-19 -0.005077136031)
(0.005750613263 1.806502346e-19 0.13746955)
(0.0002207004533 2.62749752e-19 -0.005083719262)
(0.000378716043 1.968071442e-19 -0.005092302892)
(0.0005954147059 -1.038293016e-17 -0.005110394978)
(0.0008226074014 -1.749593992e-19 -0.005137835692)
(0.001055462484 3.437704011e-19 -0.005174476047)
(0.001293234848 2.791298542e-19 -0.0052201878)
(0.001536127877 2.747843847e-19 -0.005274819007)
(0.001784657627 3.76726584e-19 -0.005338186406)
(0.002039463092 -9.879181044e-18 -0.005410070162)
(0.002301233885 -1.112666359e-18 -0.005490209207)
(0.002570676558 1.020833526e-17 -0.005578296809)
(0.002848495445 1.169359585e-17 -0.005673976288)
(0.003135379306 1.768995989e-18 -0.005776836946)
(0.003431990202 7.881081449e-20 -0.005886410358)
(0.003738952966 2.175514297e-19 -0.006002167187)
(0.004056844488 2.730740101e-19 -0.00612351475)
(0.004386182441 2.723922093e-19 -0.006249795627)
(0.004727413314 2.707559764e-19 -0.006380287369)
(0.00508089969 2.784249592e-19 -0.006514203565)
(0.00544690678 2.873709269e-19 -0.006650696442)
(0.005825588331 2.879504763e-19 -0.00678886093)
(0.006216971981 2.834323342e-19 -0.006927740127)
(0.006620944175 2.84830057e-19 -0.007066331866)
(0.007037234913 2.912215729e-19 -0.007203596028)
(0.007465401895 2.79108557e-19 -0.007338463115)
(0.007904814094 2.733676915e-19 -0.007469833364)
(0.008354636123 2.673349436e-19 -0.007596583359)
(0.008813812718 2.676628607e-19 -0.007717558763)
(0.00928105356 2.559917649e-19 -0.007831557587)
(0.009754820456 2.491562662e-19 -0.007937296474)
(0.01023331952 2.453414382e-19 -0.008033351235)
(0.01071450155 2.471788913e-19 -0.008118057294)
(0.01119607689 2.556690183e-19 -0.008189360577)
(0.01167554305 1.073418456e-18 -0.008244600328)
(0.01215018533 -6.181647988e-18 -0.008279991594)
(0.01261724269 -4.351979632e-18 -0.00829491942)
(0.01306946213 -7.751039242e-19 -0.008193865589)