/*--------------------------------*- C++ -*----------------------------------*\
| =========                 |                                                 |
| \\      /  F ield         | OpenFOAM: The Open Source CFD Toolbox           |
|  \\    /   O peration     | Version:  v1912                                 |
|   \\  /    A nd           | Website:  www.openfoam.com                      |
|    \\/     M anipulation  |                                                 |
\*---------------------------------------------------------------------------*/
FoamFile
{
    version     2.0;
    format      ascii;
    class       volScalarField;
    location    "0.5";
    object      alpha.gas;
}
// * * * * * * * * * * * * * * * * * * * * * * * * * * * * * * * * * * * * * //

dimensions      [0 0 0 0 0 0 0];


internalField   nonuniform List<scalar> 
4800
(
1.365723246e-188
7.091341307e-189
5.940059566e-189
6.107229638e-189
6.660689051e-189
8.516547801e-189
1.185645346e-188
1.789001308e-188
2.909392134e-188
5.070256429e-188
9.395161327e-188
1.832737342e-187
1.955919891e-187
4.797456275e-181
5.29597197e-180
2.698897928e-176
1.306491196e-172
5.77111689e-169
2.314565213e-165
8.360227794e-162
2.649275792e-158
7.157902108e-155
1.083004783e-151
5.445185399e-149
2.198318783e-153
2.343567831e-137
6.981742308e-139
2.017211473e-141
1.512099098e-106
1.653495781e-105
2.358553389e-119
1.047514501e-78
9.377591692e-78
9.433633616e-78
8.897008784e-63
1.611325372e-79
3.510643806e-50
2.832315754e-66
3.975888246e-05
0.01068213185
1.143064634e-185
5.858838019e-186
4.876750386e-186
4.976811388e-186
5.391524069e-186
6.827840948e-186
9.4023495e-186
1.401163836e-185
2.246860794e-185
3.855782106e-185
7.02622382e-185
1.346759654e-184
5.546063295e-185
3.325251991e-178
5.558719224e-178
2.052831206e-174
9.199201509e-171
3.755936357e-167
1.391378088e-163
4.633687e-160
1.338242588e-156
3.188385071e-153
2.478771694e-150
1.277850972e-147
2.201011949e-153
3.420432971e-133
1.696475227e-134
4.226811115e-138
6.871767064e-125
5.475162619e-101
0
1.378212112e-76
5.960239584e-94
4.308608772e-62
1.805603894e-60
0
1.013714489e-47
1.293399609e-67
0.0001794835172
0.01525778445
4.539043058e-183
2.3065873e-183
1.908306016e-183
1.933016576e-183
2.080104532e-183
2.60887062e-183
3.553301601e-183
5.229231312e-183
8.26742515e-183
1.39686825e-182
2.50284819e-182
4.713434322e-182
1.574923986e-182
1.091509754e-175
6.389528404e-176
8.40485281e-173
3.372744075e-169
1.221645308e-165
3.995581379e-162
1.177096623e-158
3.004780364e-155
6.318458479e-152
1.450693098e-149
1.485210823e-146
1.795071599e-145
1.420794262e-131
1.180745688e-131
2.161955149e-132
1.178303075e-146
8.482967378e-97
1.560686923e-115
5.026164016e-75
2.891499486e-94
1.392838047e-58
8.126931148e-58
1.730005101e-76
1.399098213e-45
1.203996091e-65
0.00041845699
0.02068031958
1.160674183e-180
5.855890881e-181
4.816228005e-181
4.842294908e-181
5.175959867e-181
6.428652822e-181
8.659552744e-181
1.258401062e-180
1.96136484e-180
3.262485696e-180
5.747149253e-180
1.063275718e-179
3.519161787e-180
2.292809882e-173
1.002310588e-173
2.581773828e-171
9.212910023e-168
2.887164161e-164
7.9190809e-161
1.909189595e-157
3.902357566e-154
7.020909565e-151
6.107642084e-152
1.159750944e-142
1.275294029e-143
6.878937012e-149
1.000977446e-126
2.091646452e-127
1.319938881e-146
7.095776158e-94
0
4.328168346e-74
4.705618007e-94
3.001426592e-56
6.213863538e-56
2.275796917e-74
3.6122816e-44
2.05417895e-67
0.0007600822389
0.02576998879
2.157920234e-178
1.081579155e-178
8.843954801e-179
8.825309023e-179
9.370384603e-179
1.152424003e-178
1.535154537e-178
2.202709976e-178
3.384273103e-178
5.541366573e-178
9.596242904e-178
1.743954232e-177
5.984715793e-178
3.474821081e-171
1.432111355e-171
6.507658252e-170
2.126139756e-166
5.948925829e-163
1.383798817e-159
2.603592029e-156
3.446020599e-153
4.228584588e-150
5.549236393e-152
6.765880526e-140
1.266447836e-140
0
6.644329952e-122
9.079642839e-123
0
1.50462934e-91
0
1.536989522e-73
0
1.328398329e-54
1.205282668e-54
0
2.598966073e-43
8.864508763e-62
0.001119850477
0.03029152959
3.114821964e-176
1.551396498e-176
1.261236268e-176
1.249089709e-176
1.317354391e-176
1.60414751e-176
2.113070898e-176
2.9933772e-176
4.53311633e-176
7.305686752e-176
1.243586191e-175
2.219677602e-175
8.046098708e-176
4.052962462e-169
1.650301502e-169
1.333730237e-168
4.030678563e-165
1.065720442e-161
2.282226268e-158
3.708975159e-155
3.006989411e-152
1.052498826e-149
5.546972892e-152
2.695092782e-138
7.196830405e-139
0
1.004144191e-118
1.234369779e-119
0
1.577813347e-88
0
2.681965555e-73
0
1.48999465e-53
7.508693177e-54
0
3.214688559e-43
4.953303385e-67
0.001469211802
0.03427607688
3.636529865e-174
1.800105707e-174
1.454956728e-174
1.429975308e-174
1.497990361e-174
1.805908133e-174
2.352112598e-174
3.289305162e-174
4.909310055e-174
7.786482942e-174
1.302648323e-173
2.283214002e-173
8.85164305e-174
3.786464727e-167
1.541453262e-167
2.415667049e-167
5.865985004e-164
1.513153957e-160
3.162373321e-157
4.994106357e-154
3.329360041e-151
1.524879406e-150
5.620616447e-152
1.306558992e-137
1.338149743e-135
0
5.321348842e-117
1.582289459e-117
6.89503684e-137
5.463359007e-86
9.047654678e-105
3.250718236e-73
0
2.674680027e-53
1.133649798e-53
2.092948656e-78
3.211073615e-43
5.107513042e-65
0.001833200534
0.03780214663
3.530887788e-172
1.73711192e-172
1.395852184e-172
1.361324225e-172
1.41644891e-172
1.690395854e-172
2.176722531e-172
3.004686866e-172
4.419191967e-172
6.896900208e-172
1.133804242e-171
1.951056504e-171
8.167404008e-172
2.91005594e-165
1.191865502e-165
6.035018504e-166
6.296275533e-163
1.602250294e-159
3.333400431e-156
5.31721526e-153
3.297419955e-150
7.938265486e-151
1.426132536e-146
1.319744169e-149
4.786666797e-132
0
1.66227282e-116
1.854247889e-113
9.3443473e-133
3.188021434e-84
6.55263621e-103
5.419350192e-73
1.676596574e-92
2.677640107e-53
9.098411719e-54
0
3.205101354e-43
1.565547538e-63
0.002248690447
0.04092462616
2.908721815e-170
1.422214759e-170
1.136085538e-170
1.099350852e-170
1.136109706e-170
1.34203039e-170
1.708378762e-170
2.327417818e-170
3.372729205e-170
5.178474242e-170
8.363619237e-170
1.412614265e-169
6.431571404e-170
1.874270616e-163
7.770611709e-164
2.775598277e-164
4.904107097e-162
1.239900349e-158
2.599576334e-155
4.253249855e-152
2.405973533e-149
3.264908635e-150
1.541247632e-144
2.869345331e-158
1.354458873e-129
6.658393374e-130
0
6.994879006e-109
7.334841038e-128
5.781122488e-83
1.150441141e-101
1.623270081e-72
1.594122094e-91
2.676882195e-53
4.810166399e-54
8.935998718e-73
3.202143733e-43
0
0.002667881171
0.04371384955
2.06351771e-168
1.002682958e-168
7.961893041e-169
7.643687167e-169
7.845409388e-169
9.171964488e-169
1.154086866e-168
1.551511602e-168
2.214861358e-168
3.344845652e-168
5.305982692e-168
8.793352774e-168
4.376325312e-168
1.024920291e-161
4.33244581e-162
1.494810194e-162
2.767023032e-161
6.948896477e-158
1.494908262e-154
2.556419906e-151
1.280180358e-148
4.702242371e-150
6.437482925e-143
9.361318942e-157
5.482104795e-128
2.909455673e-128
0
2.114435181e-104
0
3.610639461e-82
0
1.968098274e-72
0
2.677164547e-53
6.532842756e-55
9.134630915e-65
2.647798662e-43
1.556784391e-56
0.003174194331
0.04619808223
1.275093922e-166
6.15688832e-167
4.859529947e-167
4.62805883e-167
4.717596516e-167
5.457766038e-167
6.787016917e-167
9.0019407e-167
1.265644874e-166
1.879433086e-166
2.927385925e-166
4.758471584e-166
2.596337191e-166
4.801241099e-160
2.087350153e-160
7.350228736e-161
1.284217216e-160
2.803666404e-157
6.317297444e-154
1.148930931e-150
4.953490241e-148
5.346765122e-150
6.810072917e-142
2.838248634e-158
5.62491132e-127
2.877180673e-127
2.771489522e-146
1.495183032e-100
0
6.558054782e-82
0
1.968556103e-72
7.634552857e-92
2.459008942e-53
9.052648127e-73
2.41231029e-46
1.24850997e-43
0
0.0036883479
0.04843624832
6.923748691e-165
3.322006476e-165
2.606078899e-165
2.461855342e-165
2.492097984e-165
2.852561474e-165
3.505084166e-165
4.58548315e-165
6.347724242e-165
9.265501288e-165
1.416544826e-164
2.257561121e-164
1.351823389e-164
1.937505885e-158
8.756951139e-159
3.179320615e-159
1.169593545e-159
8.408103506e-157
1.963933267e-153
3.798791223e-150
1.460479526e-147
5.856792121e-150
2.650630636e-141
9.362661648e-157
2.091991579e-126
1.091043755e-126
1.275495187e-145
8.909070837e-98
4.150825015e-117
6.574045898e-82
0
1.968821211e-72
1.144777033e-91
1.491670901e-53
0
3.081507145e-46
4.796126969e-45
0
0.004195686331
0.05045785202
3.326701549e-163
1.585971267e-163
1.236530767e-163
1.15848572e-163
1.164466419e-163
1.318490335e-163
1.600366446e-163
2.064390021e-163
2.81271477e-163
4.034036915e-163
6.051195551e-163
9.451243185e-163
6.206708961e-163
6.752607409e-157
3.21663722e-157
1.20852339e-157
3.104904931e-158
2.295274161e-156
4.47730568e-153
8.773578749e-150
3.655910319e-147
6.78792803e-150
3.748883358e-141
2.813881448e-158
2.743045764e-126
1.961124165e-126
1.775698295e-145
7.632032627e-96
0
6.572651003e-82
1.796164442e-102
1.678538268e-72
0
4.365731605e-54
6.708496403e-74
1.515658104e-46
0
4.542901927e-07
0.004688946569
0.05228207724
1.422068458e-161
6.735987273e-162
5.218950714e-162
4.848371226e-162
4.83824198e-162
5.41735094e-162
6.493040093e-162
8.25520043e-162
1.106577363e-161
1.558744801e-161
2.293239614e-161
3.508813449e-161
2.521494589e-161
2.031723942e-155
1.038595262e-155
4.041338107e-156
9.475718507e-157
1.069750627e-155
7.543033556e-153
1.214802865e-149
4.721386069e-147
8.338745803e-150
3.749907864e-141
9.369001143e-157
2.743679268e-126
2.181170154e-126
0
1.480702802e-94
0
6.349747912e-82
3.197842615e-101
8.205048945e-73
3.854684917e-92
4.422452151e-55
0
1.888589759e-47
2.751190421e-66
2.63675046e-06
0.005167634885
0.05392273077
5.431109019e-160
2.55571497e-160
1.9673275e-160
1.811725057e-160
1.794389223e-160
1.986061083e-160
2.349478139e-160
2.942751427e-160
3.87917302e-160
5.364592665e-160
7.738169859e-160
1.15945643e-159
9.083830595e-160
5.258436934e-154
2.954675471e-154
1.188961618e-154
2.628921132e-155
1.052855618e-154
1.82518475e-152
6.489861882e-150
3.474683157e-147
8.490953638e-148
3.231616105e-141
9.642661386e-147
2.540147779e-126
1.918014268e-126
1.178534335e-145
8.433945021e-94
1.911151665e-112
4.597735693e-82
0
1.402394816e-73
0
1.035724642e-56
0
3.92155203e-49
0
6.599851514e-06
0.005635474342
0.0553917404
1.858943096e-158
8.68755084e-159
6.641844792e-159
6.060799219e-159
5.955434494e-159
6.512623049e-159
7.600227163e-159
9.373592223e-159
1.214665203e-158
1.648621363e-158
2.330977803e-158
3.419102812e-158
2.90507552e-158
1.162049455e-152
7.404102967e-153
3.076972851e-153
6.483747621e-154
1.203057944e-153
1.373632186e-151
3.069365535e-150
1.522900816e-147
1.682993827e-144
8.824918662e-157
1.691807797e-128
1.694168841e-126
1.182235285e-126
3.637784071e-146
1.705535792e-93
0
2.056255599e-82
1.476798358e-83
5.888854678e-93
2.554226289e-65
6.040797095e-77
4.128980477e-55
9.743802107e-52
2.475673444e-70
1.196660388e-05
0.006095194765
0.05670161899
5.713655626e-157
2.650210813e-157
2.011225634e-157
1.817597634e-157
1.77104669e-157
1.91258342e-157
2.200756166e-157
2.671696845e-157
3.402489141e-157
4.531543723e-157
6.278983778e-157
9.012355259e-157
8.245937189e-157
2.165523527e-151
1.624896605e-151
7.006048129e-152
1.413511967e-152
1.319693333e-152
1.044279866e-150
1.064144654e-149
6.06927287e-148
4.276488211e-144
9.265610055e-164
1.799730418e-125
1.287331638e-125
2.358969417e-126
0
1.716960607e-93
1.338628028e-112
7.504915587e-83
2.784566653e-83
8.404545419e-102
2.567611878e-65
0
6.468884893e-55
7.415514607e-55
7.836743713e-74
1.850358351e-05
0.006548484839
0.05786656927
1.578084578e-155
7.257451379e-156
5.463185532e-156
4.886876506e-156
4.719698534e-156
5.031380825e-156
5.706746161e-156
6.818266636e-156
8.533339989e-156
1.115077521e-155
1.513674853e-155
2.124387787e-155
2.073853788e-155
3.336216135e-150
3.074408275e-150
1.400513265e-150
2.708603937e-151
1.422229075e-151
6.702998925e-150
3.884446376e-149
1.455387512e-147
5.042683559e-144
1.52156841e-163
1.894639409e-123
1.242241745e-123
1.607924113e-124
0
1.717462627e-93
2.066264483e-112
4.463104878e-83
3.117261271e-83
3.777537213e-102
1.722536538e-65
0
5.221134922e-55
1.501264974e-55
1.042113754e-77
2.622129165e-05
0.006998346736
0.05890160372
3.913071276e-154
1.78186598e-154
1.329602849e-154
1.176742817e-154
1.126225874e-154
1.185111814e-154
1.32503034e-154
1.558224987e-154
1.916554509e-154
2.456464054e-154
3.264077267e-154
4.47295373e-154
4.605196168e-154
4.114706072e-149
4.878941916e-149
2.421973616e-149
4.506874396e-150
1.522493433e-150
3.574391592e-149
1.00432125e-148
1.685486715e-146
5.106626016e-144
9.995380774e-164
4.066511535e-122
2.739692947e-122
3.67267115e-123
0
1.503496591e-93
0
3.148941882e-83
2.295098354e-83
5.950106785e-102
3.768885175e-66
2.820509717e-85
1.472797023e-55
2.912116719e-56
5.173059952e-75
3.521880314e-05
0.007446902135
0.05982255452
8.686682324e-153
3.912071849e-153
2.892937775e-153
2.533522053e-153
2.403651064e-153
2.497798034e-153
2.753867739e-153
3.188036898e-153
3.852132195e-153
4.837384947e-153
6.279796808e-153
8.382504444e-153
8.980701793e-153
3.844646549e-148
6.38658314e-148
3.453394991e-148
6.325672665e-149
1.574976889e-149
1.555133417e-148
1.37498648e-148
8.562954024e-144
5.662105273e-144
0
2.851488458e-121
1.974615339e-121
2.783412803e-122
1.632103319e-141
8.310005616e-94
0
1.764012041e-83
8.599981469e-84
7.679379588e-103
1.628322679e-67
1.392767257e-86
8.381585843e-57
1.697460988e-57
1.489058123e-80
4.550038178e-05
0.007894414031
0.06064636642
1.718378606e-151
7.654744336e-152
5.614706087e-152
4.870443051e-152
4.584927653e-152
4.708455042e-152
5.119633165e-152
5.830386724e-152
6.908839657e-152
8.476510298e-152
1.071333773e-151
1.388900319e-151
1.528198913e-151
2.45882401e-147
8.208364261e-147
3.657252737e-147
7.124511219e-148
1.488214027e-148
5.424201876e-148
6.683194503e-154
8.313331169e-139
3.706081241e-140
0
9.821052311e-121
6.600734771e-121
9.214968126e-122
6.589628901e-141
2.154310974e-94
1.657877122e-113
5.732767441e-84
7.85811681e-85
0
9.018501306e-70
5.834012128e-91
6.133766388e-59
1.563763924e-59
0
5.695837223e-05
0.008341684338
0.06139024057
3.013177192e-150
1.331928809e-150
9.713480171e-151
8.35944404e-151
7.814932317e-151
7.92923196e-151
8.489171792e-151
9.48122999e-151
1.096946906e-150
1.308292239e-150
1.602913674e-150
2.016336544e-150
2.25963783e-150
8.331122729e-147
2.807669757e-145
2.723522754e-146
6.591610979e-147
1.236456279e-147
1.534208244e-147
1.901191782e-158
8.044125532e-134
2.604516346e-135
0
2.624978297e-120
1.418306356e-120
1.540715568e-121
0
1.913314339e-95
1.073492936e-114
8.06607951e-85
4.475062518e-102
2.901878939e-74
4.579560548e-73
9.523731397e-98
3.992567302e-62
1.445123873e-62
0
6.947602633e-05
0.008789999324
0.06207075574
4.673031483e-149
2.063942997e-149
1.500190123e-149
1.281071218e-149
1.187222074e-149
1.185598803e-149
1.242658645e-149
1.351399063e-149
1.515129386e-149
1.746600839e-149
2.073329494e-149
2.551732429e-149
2.917945956e-149
1.253314634e-150
2.740079987e-140
3.843125113e-142
1.15261175e-145
1.090389305e-146
4.049643538e-147
6.333762468e-163
7.476046474e-129
1.694563698e-130
0
8.013872085e-120
2.964489983e-120
1.41366154e-121
0
4.066198769e-97
2.29685005e-116
1.048203936e-83
2.103629005e-102
2.240278689e-74
5.79562532e-79
2.302838077e-69
1.886791207e-66
9.835071293e-67
0
8.296929845e-05
0.009239765626
0.06270343446
6.453440918e-148
2.859783084e-148
2.064267672e-148
1.738054149e-148
1.583153944e-148
1.539881342e-148
1.562080124e-148
1.636369323e-148
1.765540906e-148
1.972746425e-148
2.312320492e-148
2.866545433e-148
3.347652602e-148
5.555756096e-156
2.768456378e-135
2.302049775e-137
2.97621836e-141
3.071828099e-145
1.708630107e-146
2.40596695e-164
6.336851792e-124
9.157472573e-126
3.965269358e-145
1.7751608e-119
8.406432061e-120
0
4.380138722e-103
1.448885388e-99
2.344391429e-119
9.966976832e-81
0
4.925001091e-75
7.361569616e-78
2.337238153e-69
6.749266246e-70
5.141049743e-71
7.128020928e-91
9.774271488e-05
0.009691193299
0.06330335272
8.041251296e-147
3.501625077e-147
2.461537606e-147
2.007510203e-147
1.766058749e-147
1.645034589e-147
1.592914433e-147
1.599029324e-147
1.683953921e-147
1.91316465e-147
2.377978964e-147
3.041403216e-147
3.387768686e-147
5.138071684e-156
2.977659435e-131
2.113621371e-133
3.070203555e-137
4.358515349e-141
1.090611607e-144
0
3.221512048e-120
4.334225589e-122
0
2.197519578e-119
5.380653755e-119
0
1.340171861e-102
2.30561597e-102
2.122289334e-119
3.953021772e-79
5.045623875e-80
1.786480747e-76
5.79562532e-79
6.145856419e-70
1.431573273e-67
2.586666177e-68
0
0.0001138679923
0.01014548146
0.06388563648
8.823557746e-146
3.526456962e-146
2.328634805e-146
1.793241511e-146
1.4923335e-146
1.316012133e-146
1.230532674e-146
1.25517653e-146
1.471905941e-146
2.023471212e-146
2.838650492e-146
3.213083042e-146
2.777395545e-146
5.440668161e-156
7.053734604e-129
9.770752317e-131
1.853230879e-133
1.053626916e-136
3.211192087e-140
1.698839579e-159
4.521808629e-118
1.305205006e-119
3.266015944e-122
1.606058465e-119
1.92439836e-117
1.533108987e-138
7.679101756e-103
5.741554939e-104
1.99303606e-110
1.027983836e-78
5.05699198e-75
2.346039531e-76
1.306622202e-76
0
6.511593137e-63
1.101450636e-63
0
0.0001316079726
0.01060462805
0.06446358729
7.806254439e-145
2.675297082e-145
1.628552148e-145
1.17693958e-145
9.402530112e-146
8.752264846e-146
1.014227907e-145
1.522865317e-145
2.90102232e-145
6.617427343e-145
1.724288852e-144
4.989943364e-144
1.576663308e-143
2.503281333e-154
6.844187893e-128
2.826139825e-127
8.937854247e-129
5.415291757e-132
1.059723921e-135
0
3.340892804e-117
9.678597249e-116
1.807964104e-117
2.551351795e-136
3.607015583e-113
7.148123449e-133
1.291954843e-103
7.340058737e-123
9.531988165e-92
1.695127972e-96
5.97722234e-71
1.199656561e-72
8.013874348e-73
0
1.460193889e-58
1.792561973e-59
1.414352274e-78
0.0001509757816
0.01107022739
0.06504837953
4.776712987e-142
5.044091233e-142
6.320995869e-142
8.602659122e-142
1.279393908e-141
2.113428422e-141
3.845899146e-141
7.667198829e-141
1.674676479e-140
4.004839093e-140
1.048115039e-139
2.997299602e-139
9.35692093e-139
2.769714587e-138
1.697896502e-147
1.328296496e-122
3.466031498e-124
1.529637997e-127
2.588876463e-131
2.814019159e-131
0
2.528327105e-111
3.387845796e-113
1.613029024e-132
3.983201916e-110
0
4.549382529e-104
8.797179099e-123
2.932607493e-87
5.01805786e-100
1.616809287e-68
5.308504911e-70
6.590449224e-69
0
1.517889727e-55
1.469036249e-56
9.478632412e-76
0.0001719101475
0.01154304531
0.06564929165
2.988565366e-137
3.149775763e-137
3.931992736e-137
5.324279556e-137
7.872128659e-137
1.290427658e-136
2.327619318e-136
4.594321883e-136
9.925126955e-136
2.345319153e-135
6.060330022e-135
1.710208521e-134
5.263189551e-134
1.778068759e-133
1.759846449e-153
5.686307948e-118
1.099711237e-119
2.925861119e-123
4.639009988e-127
9.299382542e-127
1.975582931e-141
1.953915314e-108
3.614517606e-110
9.827288258e-128
3.285817815e-108
0
6.417696399e-100
0
7.6267608e-83
1.715338809e-96
1.646679701e-67
1.898326923e-67
5.731048187e-66
3.270475112e-85
1.106389466e-53
1.06246723e-54
5.851815061e-74
0.0001943479795
0.01202294297
0.06627375694
1.785929791e-132
1.87890849e-132
2.3362186e-132
3.146915617e-132
4.624162083e-132
7.519651847e-132
1.343943309e-131
2.6252807e-131
5.60670399e-131
1.308480496e-130
3.336581505e-130
9.28638485e-130
2.817785252e-129
9.398337051e-129
2.982811144e-148
1.964408345e-114
2.782809088e-116
6.849887206e-120
5.364091072e-123
1.952057796e-122
6.217474586e-143
6.406765919e-107
2.111953257e-107
2.511550869e-109
3.570975675e-107
0
1.36513748e-96
2.252138005e-115
6.086580942e-79
3.678710931e-80
0
8.651539326e-63
1.625297823e-64
3.606074309e-73
9.60381308e-53
1.788753703e-53
0
0.0002182177984
0.01250951837
0.06692747424
1.021000961e-127
1.072266361e-127
1.327755102e-127
1.778794421e-127
2.596796934e-127
4.187739739e-127
7.412942526e-127
1.432413186e-126
3.022693308e-126
6.96316662e-126
1.751161858e-125
4.803940943e-125
1.436320417e-124
4.70950961e-124
7.34050662e-144
3.547989033e-112
5.876484151e-114
4.282118954e-117
8.721292433e-119
3.53118917e-118
0
1.42108914e-106
9.570377399e-103
1.066576782e-104
9.398856689e-107
1.42754299e-113
3.439964911e-94
5.420659987e-114
4.09457952e-76
9.268983701e-77
5.693106185e-96
3.983825294e-59
1.042085141e-77
7.309717602e-55
1.777910701e-52
1.386420242e-50
1.268561993e-69
0.0002433546924
0.01300224042
0.06761439498
5.5920198e-123
5.862599327e-123
7.228347458e-123
9.629102566e-123
1.396045434e-122
2.231813997e-122
3.911132582e-122
7.47207654e-122
1.557097561e-121
3.538479798e-121
8.770809541e-121
2.369972888e-120
6.977269063e-120
2.247770795e-119
0
5.864142523e-111
4.316998712e-112
3.555397198e-113
1.411604257e-114
5.619939376e-114
4.445076523e-114
2.672402809e-125
2.415373666e-99
3.728417714e-101
9.314425223e-107
5.791606236e-95
1.562578074e-92
0
3.414433336e-74
8.989915776e-75
0
8.299235937e-57
1.34025276e-75
2.358003939e-52
4.764130619e-53
2.770748342e-46
0
0.000269490972
0.01350048775
0.0683365212
2.938331702e-118
3.075181769e-118
3.774591942e-118
4.998590512e-118
7.194312257e-118
1.139697377e-117
1.976313949e-117
3.730903642e-117
7.673076255e-117
1.718970849e-116
4.196484061e-116
1.116084951e-115
3.232886288e-115
1.022641783e-114
6.682293405e-115
2.031773464e-110
1.15805254e-108
4.117056925e-109
1.930703607e-110
7.910034348e-110
9.875635723e-110
0
2.510138358e-97
5.052911034e-98
9.315439538e-107
1.243823213e-92
1.944982256e-91
0
5.312147401e-73
1.400294772e-73
0
1.283239995e-55
2.378899482e-71
7.223683496e-51
4.769689396e-53
6.731231409e-43
7.983556961e-62
0.00029636435
0.01400306429
0.06909285937
1.48339607e-113
1.549693083e-113
1.893186509e-113
2.491602648e-113
3.558467179e-113
5.583600724e-113
9.575734101e-113
1.785199137e-112
3.621022562e-112
7.991187224e-112
1.91992107e-111
5.021657444e-111
1.429946166e-110
4.438358407e-110
1.503437588e-109
4.02933012e-109
7.259729649e-106
2.54071461e-105
2.154052996e-106
1.046482582e-105
2.110137344e-105
0
1.758532868e-96
5.479536139e-95
9.314425225e-107
3.49615901e-91
9.363116503e-91
2.885876084e-110
2.23717309e-72
6.312782209e-73
0
2.709341718e-55
1.75882892e-52
5.291783098e-50
4.764120763e-53
1.787872226e-40
9.12612009e-63
0.0003242292343
0.01450833559
0.06987834744
7.2039797e-109
7.512476021e-109
9.132328808e-109
1.194093694e-108
1.691475961e-108
2.627603722e-108
4.454088335e-108
8.194930675e-108
1.638181136e-107
3.558590776e-107
8.406881528e-107
2.160535508e-106
6.042332558e-106
1.841540026e-105
6.122537359e-105
2.20171104e-104
2.451793119e-103
4.398344964e-102
2.565769244e-102
1.606908569e-101
5.69871589e-101
5.071528537e-101
8.794629679e-97
8.073246346e-93
3.520595049e-94
2.67091951e-90
2.3784367e-90
1.296649307e-109
3.213920988e-72
1.251951726e-72
3.991903323e-74
0
1.172816151e-50
1.554049057e-49
4.769689396e-53
7.515391631e-39
1.695370246e-60
0.0003539986335
0.01501293373
0.07068602895
3.369670206e-104
3.50772388e-104
4.242109581e-104
5.508961773e-104
7.736297377e-104
1.189177447e-103
1.991213613e-103
3.613000845e-103
7.112341005e-103
1.519455752e-102
3.526378521e-102
8.895962252e-102
2.440945936e-101
7.297030716e-101
2.379836964e-100
8.42212905e-100
3.25193036e-99
1.5832906e-98
6.682455832e-98
3.65991756e-97
1.803576363e-96
1.075657546e-95
7.862233417e-96
3.213679421e-91
5.148544675e-91
1.13873425e-89
8.074810616e-90
7.417112922e-109
3.214692333e-72
1.526547468e-72
9.164733945e-74
1.92077598e-93
6.252277515e-50
3.533964739e-49
4.764120757e-53
7.288062793e-38
2.277186269e-58
0.0003869257768
0.01551285749
0.07151094892
1.519999102e-99
1.579457178e-99
1.8998852e-99
2.449629431e-99
3.408682135e-99
5.18182183e-99
8.565230373e-99
1.531525923e-98
2.966399625e-98
6.226768563e-98
1.418245104e-97
3.508211306e-97
9.43369316e-97
2.762969233e-96
8.829035783e-96
3.062594322e-95
1.155553039e-94
4.796668417e-94
2.186247565e-93
1.101064297e-92
5.902244398e-92
3.555402549e-91
2.445745178e-90
2.770144479e-89
2.654904885e-88
4.145194794e-87
1.468758171e-85
1.218680779e-104
3.11124247e-72
1.707097909e-72
1.155653552e-73
0
4.153390289e-50
1.364802924e-46
4.769689396e-53
2.212712246e-37
1.269568853e-59
0.0004205915475
0.01600767071
0.0723494052
6.620855597e-95
6.867241015e-95
8.214010189e-95
1.051127368e-94
1.448579263e-94
2.176553574e-94
3.549003092e-94
6.248504298e-94
1.189731138e-93
2.451362159e-93
5.473652841e-93
1.326126004e-92
3.490446619e-92
1.000272485e-91
3.127696517e-91
1.062045213e-90
3.926536432e-90
1.59733719e-89
7.121439442e-89
3.483618812e-88
1.870614581e-87
1.122561241e-86
7.759690173e-86
6.581976423e-85
7.864893225e-84
1.587049013e-82
6.567016357e-81
0
1.790535512e-72
1.048872924e-71
0
4.991856726e-56
0
5.329911669e-44
4.764126844e-53
2.512050686e-37
1.26346775e-57
0.0004549735091
0.01649491082
0.07319643029
2.788470805e-90
2.886717993e-90
3.432488813e-90
4.357768046e-90
5.944551058e-90
8.822875018e-90
1.418090178e-89
2.456319804e-89
4.593093408e-89
9.279544148e-89
2.028970649e-88
4.808602643e-88
1.237209297e-87
3.464368115e-87
1.058481761e-86
3.513264653e-86
1.270992811e-85
5.064915622e-85
2.215075538e-84
1.06419152e-83
5.645093685e-83
3.362886191e-82
2.335559246e-81
2.049431207e-80
2.646029082e-79
6.039933386e-78
2.846811565e-76
3.096630888e-74
5.236406883e-72
6.658317842e-70
0
1.956989921e-55
0
3.140389263e-42
1.633584009e-40
2.509612036e-37
2.955334115e-58
0.0004896472135
0.01697259181
0.07404584356
1.137015599e-85
1.174715495e-85
1.38815622e-85
1.747682841e-85
2.358531187e-85
3.455517568e-85
5.470417946e-85
9.313591798e-85
1.708592294e-84
3.380867512e-84
7.229668538e-84
1.673855361e-83
4.203886341e-83
1.148481049e-82
3.423507392e-82
1.109024319e-81
3.919715055e-81
1.52783351e-80
6.547249386e-80
3.089921198e-79
1.616188383e-78
9.55760235e-78
6.698171121e-77
6.143692433e-76
8.678193515e-75
2.264144616e-73
1.236381402e-71
1.504636481e-69
2.538379406e-67
1.557312811e-65
7.735879185e-76
7.743798283e-54
3.242051889e-73
4.431498412e-41
2.492772916e-39
2.506939267e-37
7.467103038e-58
0.0005246601603
0.01743874092
0.07489069363
4.494580703e-81
4.633742002e-81
5.44000615e-81
6.788834689e-81
9.058235612e-81
1.309169542e-80
2.03964598e-80
3.409955238e-80
6.13051533e-80
1.186666435e-79
2.478474104e-79
5.5978066e-79
1.370221738e-78
3.646272663e-78
1.058669654e-77
3.341508532e-77
1.151887908e-76
4.384444984e-76
1.838199271e-75
8.511697471e-75
4.386232298e-74
2.577452793e-73
1.833657681e-72
1.778412792e-71
2.784109932e-70
8.359811187e-69
5.270448261e-67
7.055612818e-65
1.186562096e-62
7.483470012e-61
1.154930877e-57
6.24482895e-53
4.974801168e-58
1.907820191e-40
7.105390873e-39
2.156418583e-37
9.322951437e-58
0.0005595699914
0.01789235907
0.0757240026
1.724723772e-76
1.774090868e-76
2.068515521e-76
2.55750991e-76
3.371867306e-76
4.80384292e-76
7.35899617e-76
1.206893744e-75
2.123947358e-75
4.016602158e-75
8.182127481e-75
1.799974882e-74
4.287050974e-74
1.109270548e-73
3.131304468e-73
9.612172736e-73
3.225864028e-72
1.196932655e-71
4.901493171e-71
2.223394115e-70
1.127977115e-69
6.598806701e-69
4.803514454e-68
4.987792965e-67
8.769985904e-66
3.035405841e-64
2.200190008e-62
3.18238998e-60
5.235686902e-58
4.809911043e-56
2.757047523e-54
0
9.069562478e-41
3.909772554e-40
1.090852315e-38
1.178835714e-37
5.353859374e-58
0.0005940752729
0.01833318551
0.07653910447
6.433647516e-72
6.601638048e-72
7.641809227e-72
9.356175213e-72
1.218098789e-71
1.709378949e-71
2.572415978e-71
4.134152427e-71
7.113132118e-71
1.312407839e-70
2.603607362e-70
5.569663628e-70
1.288444013e-69
3.235477764e-69
8.862330034e-69
2.640505048e-68
8.609841465e-68
3.108134427e-67
1.240967459e-66
5.5057895e-66
2.747823556e-65
1.605623033e-64
1.208076727e-63
1.360222368e-62
2.72178597e-61
1.080917789e-59
8.94280901e-58
1.376275822e-55
2.189655765e-53
1.867452318e-51
9.799562463e-50
1.634475646e-68
2.838356888e-37
6.275880068e-39
1.367792094e-38
5.17481128e-38
0
0.0006280084034
0.01876254341
0.07733060776
2.336253775e-67
2.390906413e-67
2.746677511e-67
3.328319841e-67
4.276200757e-67
5.906237732e-67
8.723155723e-67
1.372247738e-66
2.305446804e-66
4.14413814e-66
7.993721744e-66
1.65995047e-65
3.72258701e-65
9.053575881e-65
2.40117949e-64
6.928776531e-64
2.1902497e-63
7.676448109e-63
2.982358266e-62
1.291967528e-61
6.342205912e-61
3.720043157e-60
2.928603224e-59
3.620824837e-58
8.340361672e-57
3.763575825e-55
3.512415899e-53
5.68774851e-51
8.586818546e-49
6.83475092e-47
3.102365006e-45
4.856811518e-64
2.71373223e-35
1.104679359e-36
2.967576811e-35
2.541863257e-34
0
0.0006604662248
0.01918239072
0.07809485442
8.270787362e-63
8.439778071e-63
9.618533824e-63
1.152934998e-62
1.460820722e-62
1.984250426e-62
2.873377968e-62
4.419436232e-62
7.240415349e-62
1.266083535e-61
2.370587261e-61
4.76964627e-61
1.0348071e-60
2.432074532e-60
6.231218561e-60
1.737253997e-59
5.311128815e-59
1.803054859e-58
6.801278507e-58
2.871743539e-57
1.387763676e-56
8.234257655e-56
6.874479482e-55
9.448767919e-54
2.522635518e-52
1.27781233e-50
1.321815956e-48
2.235567122e-46
3.151067056e-44
2.342466926e-42
9.036096503e-41
0
1.620470717e-34
7.595411568e-34
1.336558964e-30
1.216645415e-29
0
0.000689499447
0.01959348691
0.07882926223
2.858917985e-58
2.908051968e-58
3.286534681e-58
3.894654608e-58
4.863213778e-58
6.491012004e-58
9.206741161e-58
1.382874418e-57
2.206273552e-57
3.747133179e-57
6.798376796e-57
1.322704976e-56
2.770192475e-56
6.276784437e-56
1.549672406e-55
4.163546072e-55
1.227824452e-54
4.027269539e-54
1.471346937e-53
6.045026676e-53
2.882782544e-52
1.749918005e-51
1.570114316e-50
2.42913776e-49
7.504026867e-48
4.22059256e-46
4.727614129e-44
8.302139383e-42
1.082024663e-39
7.459781366e-38
2.380093904e-36
8.698871306e-35
1.776083082e-49
4.308437664e-29
6.011533488e-26
5.743819359e-25
9.176052065e-44
0.0007105952823
0.0199892527
0.07952758224
9.664447643e-54
9.795955841e-54
1.097387496e-53
1.284919508e-53
1.580118119e-53
2.070653137e-53
2.873793619e-53
4.2102938e-53
6.532192794e-53
1.075812351e-52
1.887791623e-52
3.544340096e-52
7.1489898e-52
1.557663372e-51
3.695819408e-51
9.542106092e-51
2.70661814e-50
8.553476046e-50
3.018592867e-49
1.205164622e-48
5.700409485e-48
3.593493577e-47
3.509566816e-46
6.184178531e-45
2.18067971e-43
1.35223582e-41
1.596932072e-39
2.88877772e-37