/*--------------------------------*- C++ -*----------------------------------*\
| =========                 |                                                 |
| \\      /  F ield         | OpenFOAM: The Open Source CFD Toolbox           |
|  \\    /   O peration     | Version:  v1912                                 |
|   \\  /    A nd           | Website:  www.openfoam.com                      |
|    \\/     M anipulation  |                                                 |
\*---------------------------------------------------------------------------*/
FoamFile
{
    version     2.0;
    format      ascii;
    class       volScalarField;
    location    "0.5";
    object      alpha.gas_0;
}
// * * * * * * * * * * * * * * * * * * * * * * * * * * * * * * * * * * * * * //

dimensions      [0 0 0 0 0 0 0];


internalField   nonuniform List<scalar> 
4800
(
1.120317953e-188
5.819791061e-189
4.877468169e-189
5.018178105e-189
5.474742188e-189
7.005461439e-189
9.760512536e-189
1.474090837e-188
2.399799691e-188
4.187056396e-188
7.768550847e-188
1.517432671e-187
1.821094098e-187
4.001778235e-181
5.155634188e-180
2.646367046e-176
1.282820178e-172
5.674047345e-169
2.278499713e-165
8.239973874e-162
2.614596368e-158
7.075850689e-155
1.077222798e-151
5.415960996e-149
2.190921823e-153
2.137685281e-137
6.229372814e-139
0
1.545506883e-106
1.673110091e-105
2.368008994e-124
1.066897803e-78
9.548697274e-78
9.60575256e-78
9.064868598e-63
1.405631078e-78
3.58182605e-50
1.193025512e-67
3.971347428e-05
0.01068430166
9.427360031e-186
4.834413107e-186
4.02613166e-186
4.111528482e-186
4.455543582e-186
5.646710631e-186
7.781897469e-186
1.160713056e-185
1.863204833e-185
3.201044042e-185
5.840431828e-185
1.120897728e-184
4.768377534e-185
2.790530591e-178
5.232778079e-178
2.009012153e-174
9.022428586e-171
3.691693564e-167
1.370350768e-163
4.571882978e-160
1.322563489e-156
3.155789156e-153
2.473628412e-150
1.274696408e-147
2.19341696e-153
3.338311103e-133
1.619089661e-134
0
3.506812785e-125
5.578701935e-101
7.603640795e-120
1.417020526e-76
3.920996969e-94
4.427332737e-62
1.85437323e-60
8.568226174e-79
1.042612805e-47
7.983766158e-68
0.0001795160926
0.01526059012
3.764124421e-183
1.913773628e-183
1.584141984e-183
1.60573205e-183
1.728441009e-183
2.169398985e-183
2.956980185e-183
4.355442348e-183
6.892909777e-183
1.165926629e-182
2.091612203e-182
3.943877782e-182
1.31302428e-182
9.21821556e-176
5.620852627e-176
8.203907251e-173
3.300714784e-169
1.199038198e-165
3.933785475e-162
1.162360281e-158
2.975330337e-155
6.266828099e-152
1.453188515e-149
1.485291489e-146
1.682123683e-145
1.445063928e-131
1.163671332e-131
2.09068469e-132
2.313143469e-150
8.712681189e-97
0
5.159754484e-75
0
1.435410689e-58
8.332867788e-58
5.27390961e-78
1.437380152e-45
1.203983381e-65
0.0004191382909
0.02068333008
9.67858208e-181
4.885647999e-181
4.020331501e-181
4.04477498e-181
4.324751752e-181
5.37529275e-181
7.246017331e-181
1.053882273e-180
1.644214412e-180
2.737919471e-180
4.828835087e-180
8.944638505e-180
2.92419446e-180
1.948810617e-173
8.553494189e-174
2.514603256e-171
8.992364548e-168
2.825307845e-164
7.775652101e-161
1.882629486e-157
3.869223184e-154
6.984272131e-151
6.080346053e-152
1.173904335e-142
1.249683737e-143
6.531191104e-149
9.757719385e-127
2.031695963e-127
0
7.310938156e-94
6.957820191e-113
4.420441242e-74
0
3.084448374e-56
6.350196925e-56
1.118639959e-75
3.683724727e-44
9.366746469e-68
0.0007608990696
0.02577374215
1.809494805e-178
9.074330314e-179
7.423840262e-179
7.413054618e-179
7.873126973e-179
9.689647993e-179
1.291699419e-178
1.854925337e-178
2.852661662e-178
4.675865701e-178
8.106831447e-178
1.475028551e-177
4.984698532e-178
2.972564505e-171
1.219934667e-171
6.336925277e-170
2.074293116e-166
5.811212831e-163
1.354253661e-159
2.555847947e-156
3.409595009e-153
4.222098806e-150
5.530149219e-152
6.882496837e-140
1.281722601e-140
0
6.544623244e-122
8.949221856e-123
0
1.542366536e-91
9.277421866e-111
1.559067243e-73
2.895695333e-93
1.353026123e-54
1.223203766e-54
0
2.62754353e-43
9.519274674e-65
0.001121049069
0.0302961296
2.626604483e-176
1.308956121e-176
1.064693441e-176
1.055124058e-176
1.113090283e-176
1.356348561e-176
1.787911697e-176
2.53479778e-176
3.842224802e-176
6.198625742e-176
1.056336144e-175
1.887647761e-175
6.727154391e-176
3.489690023e-169
1.412192945e-169
1.296884793e-168
3.941482213e-165
1.042586852e-161
2.233632501e-158
3.631909354e-155
2.956409567e-152
1.05476517e-149
5.527896146e-152
2.744972395e-138
7.303430932e-139
5.194261282e-158
1.002338012e-118
1.233346748e-119
0
1.606379613e-88
0
2.701771465e-73
2.089615124e-92
1.507810193e-53
7.557187788e-54
0
3.23104944e-43
3.934134689e-67
0.001470458664
0.03428148761
3.083956913e-174
1.527447205e-174
1.235218047e-174
1.214786238e-174
1.272896756e-174
1.535577076e-174
2.001380999e-174
2.801014664e-174
4.184309264e-174
6.643263344e-174
1.112620049e-173
1.952368213e-173
7.434156031e-174
3.281633855e-167
1.326578609e-167
2.307114454e-167
5.757013316e-164
1.485293541e-160
3.104093468e-157
4.900474696e-154
3.271477929e-151
1.526402196e-150
5.600285529e-152
1.333049833e-137
1.340660524e-135
0
5.426538595e-117
1.587747459e-117
0
5.584060498e-86
0
3.266101204e-73
2.993390551e-92
2.687224152e-53
1.125966749e-53
0
3.227387137e-43
4.713854916e-65
0.001833852598
0.03780820475
3.011525184e-172
1.482459268e-172
1.191841015e-172
1.163090107e-172
1.210486571e-172
1.445542939e-172
1.862651497e-172
2.573100943e-172
3.787745773e-172
5.9172198e-172
9.73800661e-172
1.677603317e-171
6.894488166e-172
2.53885759e-165
1.031811907e-165
5.455295918e-166
6.202861569e-163
1.578556572e-159
3.283459164e-156
5.234815895e-153
3.251389483e-150
7.797369579e-151
1.428270472e-146
1.332797153e-149
4.842732728e-132
0
1.773297067e-116
1.81858993e-113
2.935897192e-132
3.255020508e-84
8.428471675e-103
5.45755995e-73
0
2.68908227e-53
8.947351178e-54
3.655472914e-75
3.224456243e-43
1.565547538e-63
0.002248489319
0.04093061931
2.495222935e-170
1.22075442e-170
9.756528859e-171
9.446861782e-171
9.765010342e-171
1.154222063e-170
1.470237156e-170
2.00445623e-170
2.907187788e-170
4.467960981e-170
7.223704733e-170
1.22143441e-169
5.459681567e-170
1.646285905e-163
6.767677564e-164
2.42303415e-164
4.848012315e-162
1.225815734e-158
2.569058419e-155
4.200433628e-152
2.380403305e-149
3.209291346e-150
1.568424234e-144
2.238435837e-158
1.378330289e-129
6.739132102e-130
0
6.892643831e-109
0
5.880102304e-83
0
1.634461409e-72
1.004318056e-91
2.689329842e-53
4.637462096e-54
0
3.222614948e-43
0
0.002666150231
0.04371901234
1.780507858e-168
8.656777095e-169
6.877424878e-169
6.606514968e-169
6.78234789e-169
7.934003112e-169
9.989315628e-169
1.343885785e-168
1.920055483e-168
2.902357658e-168
4.60882373e-168
7.646343839e-168
3.73756343e-168
9.065135497e-162
3.796421321e-162
1.302339592e-162
2.739365046e-161
6.89118667e-158
1.481737474e-154
2.53201557e-151
1.27053744e-148
4.613335085e-150
6.559675332e-143
9.295125005e-157
5.58566187e-128
2.947780571e-128
7.985819892e-147
2.094828393e-104
5.482478858e-125
3.658287317e-82
7.039961833e-102
1.975730832e-72
3.126220172e-93
2.688431305e-53
4.89804297e-55
0
2.648508714e-43
0
0.003171512514
0.04620115434
1.106700889e-166
5.346924978e-167
4.222293961e-167
4.023515223e-167
4.102199931e-167
4.748629363e-167
5.908705642e-167
7.842468969e-167
1.10352181e-166
1.640199787e-166
2.557356302e-166
4.161479508e-166
2.231707227e-166
4.277084307e-160
1.840561833e-160
6.436250802e-161
1.25264784e-160
2.786846545e-157
6.277613894e-154
1.141075435e-150
4.929030409e-148
5.245499812e-150
6.913783176e-142
2.222544339e-158
5.708897433e-127
2.906909472e-127
0
1.501099377e-100
3.175793117e-119
6.581247491e-82
3.354192244e-101
1.976596881e-72
9.489585865e-92
2.462018096e-53
0
2.533031527e-46
1.236361916e-43
0
0.003684907119
0.04843598567
6.045115751e-165
2.902108285e-165
2.277750923e-165
2.152915001e-165
2.179790823e-165
2.496524406e-165
3.069410724e-165
4.018284388e-165
5.566990418e-165
8.133288354e-165
1.244687376e-164
1.985777362e-164
1.169857449e-164
1.73889221e-158
7.771097277e-159
2.801261073e-159
1.070141582e-159
8.360706948e-157
1.955888604e-153
3.783199571e-150
1.455377956e-147
5.750096273e-150
2.671267033e-141
9.298226963e-157
2.108141533e-126
1.096862907e-126
2.073722278e-146
9.009593685e-98
0
6.594187623e-82
2.052578957e-101
1.976419546e-72
0
1.481638314e-53
1.070733667e-72
3.112918585e-46
3.961203479e-45
0
0.004191493372
0.05045283403
2.921957022e-163
1.39379619e-163
1.08720138e-163
1.019146419e-163
1.024607597e-163
1.160794939e-163
1.409785051e-163
1.819794961e-163
2.481410754e-163
3.562055582e-163
5.34839398e-163
8.362200262e-163
5.409096572e-163
6.10787834e-157
2.873174596e-157
1.071965025e-157
2.772158415e-158
2.26569871e-156
4.467045519e-153
8.764175839e-150
3.651529381e-147
6.677893389e-150
3.75902749e-141
2.22018961e-158
2.750857054e-126
1.962488392e-126
0
7.737724757e-96
0
6.595571896e-82
7.208696436e-101
1.677724567e-72
0
4.280911243e-54
6.419436471e-73
1.494749264e-46
0
4.478645794e-07
0.004683825271
0.05227082531
1.256602758e-161
5.955519001e-162
4.616386056e-162
4.29095988e-162
4.282868199e-162
4.7982446e-162
5.75440599e-162
7.321101229e-162
9.821251131e-162
1.384641173e-161
2.038997858e-161
3.122918334e-161
2.213424352e-161
1.852922978e-155
9.338954327e-156
3.610140986e-156
8.477776051e-157
1.033833536e-155
7.50319403e-153
1.217433505e-149
4.733500771e-147
8.234671286e-150
3.759986285e-141
9.300677744e-157
2.751206409e-126
2.176005256e-126
0
1.501788832e-94
0
6.359559794e-82
1.534065073e-101
8.114912511e-73
3.795100741e-92
4.256111045e-55
0
1.796106432e-47
3.060749812e-67
2.61402474e-06
0.005161491947
0.0539038939
4.828442765e-160
2.27340409e-160
1.750843186e-160
1.613266258e-160
1.59818605e-160
1.769922141e-160
2.095041067e-160
2.625836937e-160
3.464005005e-160
4.794418645e-160
6.921818006e-160
1.038124369e-159
8.03341218e-160
4.837721235e-154
2.675288024e-154
1.06986299e-154
2.364435542e-155
1.007992193e-154
1.776324394e-152
6.506336287e-150
3.487421274e-147
8.646050596e-148
3.235768089e-141
5.096627348e-147
2.541889509e-126
1.909678527e-126
0
8.534077074e-94
0
4.580930503e-82
0
1.355909175e-73
5.408991191e-84
9.700400319e-57
1.487135807e-87
3.580910482e-49
3.186955964e-68
6.552672532e-06
0.005628318856
0.05536427053
1.662870532e-158
7.775948274e-159
5.947907623e-159
5.43069924e-159
5.337610246e-159
5.840382247e-159
6.819769056e-159
8.416499075e-159
1.091408454e-158
1.482470539e-158
2.097778075e-158
3.079840665e-158
2.588769362e-158
1.079085495e-152
6.754874983e-153
2.788996829e-153
5.86698237e-154
1.150279119e-153
1.333914712e-151
3.036036405e-150
1.527915796e-147
1.714687567e-144
8.967242169e-157
1.671727914e-128
1.685279649e-126
1.170214994e-126
4.022571615e-146
1.711559313e-93
0
2.034556914e-82
1.424550574e-83
0
2.58440667e-65
0
4.670891377e-55
8.543368662e-52
0
1.188952574e-05
0.006087100133
0.05666492687
5.143180368e-157
2.387233599e-157
1.812643365e-157
1.63910179e-157
1.597543675e-157
1.726187034e-157
1.987395993e-157
2.414122054e-157
3.076409913e-157
4.100133237e-157
5.685581946e-157
8.16793041e-157
7.405808627e-157
2.031162978e-151
1.495541796e-151
6.397468543e-152
1.287547478e-152
1.258325631e-152
1.017956943e-150
1.050795947e-149
6.0864471e-148
4.304967716e-144
2.489135147e-163
1.8023518e-125
1.281751451e-125
2.325921817e-126
0
1.722150541e-93
2.882655283e-113
7.440692383e-83
2.770393377e-83
6.532336292e-103
2.58945116e-65
0
6.50359363e-55
7.024195563e-55
7.666267294e-74
1.839341166e-05
0.006539551794
0.05782062064
1.429730436e-155
6.580304367e-156
4.956298824e-156
4.436039051e-156
4.285354901e-156
4.570682029e-156
5.186788562e-156
6.200241888e-156
7.76417752e-156
1.015227179e-155
1.379182066e-155
1.937444187e-155
1.877657722e-155
3.163449598e-150
2.859657995e-150
1.2897266e-150
2.485709203e-151
1.350926521e-151
6.559994833e-150
3.85310805e-149
1.403010219e-147
5.048742422e-144
0
1.913206508e-123
1.247340618e-123
1.597409482e-124
8.972394131e-145
1.721740286e-93
3.608535807e-113
4.457914625e-83
3.108738933e-83
7.086171432e-102
1.715407076e-65
1.799340444e-84
5.22386236e-55
1.478004608e-55
1.041103905e-77
2.607564306e-05
0.006988680893
0.05884691056
3.569126491e-154
1.626609793e-154
1.214423686e-154
1.075362191e-154
1.029386946e-154
1.083652966e-154
1.212079888e-154
1.426018115e-154
1.754849074e-154
2.250705159e-154
2.99319924e-154
4.106057207e-154
4.204451305e-154
3.948820813e-149
4.588525498e-149
2.256677952e-149
4.174494354e-150
1.442326599e-150
3.512199739e-149
1.001849975e-148
1.674150887e-146
5.109861473e-144
0
4.121159386e-122
2.760381654e-122
3.659173192e-123
0
1.503185077e-93
1.649605232e-112
3.147197593e-83
2.276007372e-83
0
3.650219038e-66
0
1.434069024e-55
2.818157873e-56
1.677609987e-78
3.503562218e-05
0.007436649783
0.05976008784
7.979019095e-153
3.596129556e-153
2.660445726e-153
2.330799455e-153
2.21146887e-153
2.29875609e-153
2.535255062e-153
2.936211239e-153
3.549934319e-153
4.461535657e-153
5.797888201e-153
7.748371793e-153
8.269363216e-153
3.740561713e-148
6.017415854e-148
3.274570509e-148
5.930031976e-149
1.492966806e-149
1.534073116e-148
1.404462588e-148
6.530883233e-144
5.555825773e-144
1.017776074e-162
2.889711945e-121
1.989293565e-121
2.771238331e-122
1.326114039e-141
8.247017781e-94
0
1.756318622e-83
8.412861536e-84
3.106733131e-102
1.515721423e-67
5.722157938e-86
7.830717998e-57
1.585945713e-57
1.489059294e-80
4.527754561e-05
0.007883786318
0.060577466
1.589849615e-151
7.08536288e-152
5.198081472e-152
4.509951109e-152
4.245435679e-152
4.360927165e-152
4.743641897e-152
5.405444301e-152
6.410751416e-152
7.874127537e-152
9.964463125e-152
1.293270962e-151
1.418950726e-151
2.431719174e-147
7.346810133e-147
3.548982132e-147
6.759921866e-148
1.415833903e-148
5.368899246e-148
8.823046831e-154
6.236943179e-139
2.857790313e-140
1.628755722e-159
9.925925123e-121
6.632684993e-121
9.144941713e-122
7.942517133e-141
2.112538364e-94
8.851314157e-114
5.663885756e-84
7.23263881e-85
1.039487346e-92
7.997557534e-70
0
5.44611198e-59
1.394560571e-59
5.322929763e-90
5.669154228e-05
0.008330930125
0.06131651777
2.807590849e-150
1.240909146e-150
9.049497309e-151
7.789173485e-151
7.282340195e-151
7.392418633e-151
7.920398554e-151
8.855140827e-151
1.025823028e-150
1.22515423e-150
1.502783883e-150
1.891211624e-150
2.113723291e-150
8.411794549e-147
2.153317126e-145
2.650599762e-146
6.174443267e-147
1.174586034e-147
1.52015761e-147
2.535990931e-158
6.005210781e-134
1.97624376e-135
0
2.642709069e-120
1.419419975e-120
1.522725996e-121
6.911928018e-141
1.843792768e-95
3.340414379e-114
7.866388392e-85
3.740702033e-102
2.965653361e-74
3.854527486e-73
9.523731398e-98
3.344607705e-62
1.219648362e-62
1.718062293e-88
6.916100324e-05
0.008779379988
0.06199399262
4.381373959e-149
1.934296199e-149
1.406234238e-149
1.20148791e-149
1.114157243e-149
1.113867261e-149
1.169110893e-149
1.273439459e-149
1.429946816e-149
1.650143317e-149
1.958618435e-149
2.407109167e-149
2.745378819e-149
1.734210392e-150
2.034519357e-140
2.914691812e-142
9.562037778e-146
1.003130542e-146
3.98419018e-147
7.018330286e-163
5.662396312e-129
1.279030899e-130
0
8.064558532e-120
2.960584101e-120
1.387205071e-121
0
3.8269763e-97
0
8.983780439e-84
0
2.2413581e-74
2.111872906e-93
2.409946738e-69
1.517581941e-66
7.851620158e-67
3.108258602e-91
8.260599648e-05
0.009229540098
0.06262557151
6.081380286e-148
2.697275462e-148
1.949647924e-148
1.644090988e-148
1.499917817e-148
1.461726957e-148
1.485716422e-148
1.558955483e-148
1.68313239e-148
1.877904927e-148
2.192357296e-148
2.709912644e-148
3.170122511e-148
5.585712162e-156
2.088961757e-135
1.724069837e-137
2.33365871e-141
2.526960416e-145
1.667809792e-146
3.489878683e-164
4.949612603e-124
7.016458842e-126
0
1.785250537e-119
8.458915284e-120
0
5.05308962e-103
1.323604606e-99
1.690205774e-119
9.163496431e-81
0
4.753630949e-75
0
2.375769137e-69
6.502422587e-70
4.340526619e-71
3.563890976e-90
9.736239763e-05
0.009681523521
0.06322656947
7.629011537e-147
3.337697083e-147
2.353581212e-147
1.924407348e-147
1.696823276e-147
1.583930461e-147
1.535707225e-147
1.540455082e-147
1.614597212e-147
1.816328862e-147
2.24063641e-147
2.888802511e-147
3.263761057e-147
5.138002615e-156
2.592060471e-131
1.776562851e-133
2.553748934e-137
3.618239198e-141
9.35368429e-145
1.119084181e-163
2.866951496e-120
3.717624875e-122
4.092585339e-155
2.20597369e-119
5.469650502e-119
2.568670095e-138
1.354863841e-102
2.227113029e-102
1.1024399e-118
3.982681473e-79
3.896403591e-80
1.639920152e-76
7.477562218e-94
6.005520451e-70
1.221285629e-67
2.173871534e-68
0
0.0001134262497
0.0101366486
0.06381210676
8.514085459e-146
3.427276492e-146
2.27069929e-146
1.752716468e-146
1.460986781e-146
1.287189911e-146
1.196554536e-146
1.203397889e-146
1.379491213e-146
1.866613336e-146
2.674247392e-146
3.159800795e-146
2.772769608e-146
5.440703498e-156
6.810314622e-129
9.01990061e-131
1.56035504e-133
8.592523669e-137
2.743851106e-140
0
4.407283011e-118
1.199246166e-119
2.580264712e-122
1.61921862e-119
1.715057052e-117
1.03277942e-136
7.626954812e-103
5.497120352e-104
1.99303606e-110
1.250767942e-78
3.526360144e-75
1.968667266e-76
1.31149912e-76
1.856928729e-89
5.572123501e-63
9.295519084e-64
0
0.0001311002254
0.01059688357
0.06439527315
7.763820942e-145
2.664241648e-145
1.622424035e-145
1.172739422e-145
9.285181363e-146
8.388752171e-146
9.33036884e-146
1.346033749e-145
2.495868337e-145
5.613465023e-145
1.452588853e-144
4.190484593e-144
1.31994236e-143
2.033444461e-154
6.972855877e-128
2.43946535e-127
7.568882e-129
4.457089461e-132
9.051936566e-136
5.350150236e-150
3.413718491e-117
7.43602219e-116
1.393062743e-117
2.380769243e-132
3.29936341e-113
9.485838645e-133
1.2453713e-103
0
8.61757923e-92
2.041640541e-96
4.769183008e-71
9.82080659e-73
7.578705262e-73
0
1.326579243e-58
1.606771427e-59
0
0.0001503971293
0.01106381534
0.06498704158
4.088909211e-142
4.31766646e-142
5.409081923e-142
7.356932612e-142
1.093031533e-141
1.803513682e-141
3.27736579e-141
6.523326892e-141
1.422293607e-140
3.394708572e-140
8.866009207e-140
2.529867688e-139
7.880412776e-139
2.263013994e-138
1.443771773e-146
1.159377542e-122
2.984959186e-124
1.28403792e-127
2.245465668e-131
2.532973621e-131
0
2.12057139e-111
2.858218837e-113
0
3.823442857e-110
4.271374472e-129
4.26684964e-104
0
2.674001318e-87
3.737585315e-97
1.526547796e-68
4.769276985e-70
5.089150816e-69
1.596667372e-88
1.450027863e-55
1.384178455e-56
5.600759147e-76
0.0001712557121
0.01153816473
0.06559648375
2.573101161e-137
2.711671263e-137
3.383989065e-137
4.579164164e-137
6.763460269e-137
1.107359299e-136
1.994498174e-136
3.930210877e-136
8.474594862e-136
1.998487603e-135
5.152884624e-135
1.450775359e-134
4.453931659e-134
1.499470392e-133
0
5.025357924e-118
9.605316198e-120
2.488648269e-123
4.117957747e-127
8.713666651e-127
0
1.77116194e-108
3.25646152e-110
0
3.2538125e-108
0
6.080333329e-100
5.817868811e-119
6.992311989e-83
3.835199266e-82
1.685355697e-67
1.563218619e-67
4.519429645e-66
0
1.094144821e-53
1.036280329e-54
4.464838922e-74
0.0001936115353
0.01201974414
0.0662308133
1.546652377e-132
1.626992713e-132
2.022280461e-132
2.722113237e-132
3.995697274e-132
6.489486212e-132
1.158062217e-131
2.25822142e-131
4.813367356e-131
1.120939873e-130
2.851829501e-130
7.917954155e-130
2.396405766e-129
7.970679071e-129
2.695896854e-148
1.848067335e-114
2.571126747e-116
6.158543409e-120
5.029541809e-123
1.847023955e-122
1.813740719e-141
6.449333899e-107
1.731360534e-107
1.944875922e-109
3.577434877e-107
0
1.325772257e-96
1.48250367e-115
5.768217273e-79
2.683674779e-80
2.053206856e-86
7.119602199e-63
1.305729812e-64
0
9.695154547e-53
1.777518819e-53
1.120091076e-72
0.0002173887639
0.0125081048
0.06689547777
8.894568273e-128
9.339885927e-128
1.156096177e-127
1.54767365e-127
2.256922808e-127
3.63485049e-127
6.424029511e-127
1.239059279e-126
2.60933856e-126
5.997544648e-126
1.504704532e-125
4.117311077e-125
1.227709789e-124
4.013844286e-124
0
3.505189959e-112
5.649163546e-114
4.045363638e-117
8.301560602e-119
3.364333529e-118
0
1.740886769e-106
7.697234973e-103
8.51227008e-105
9.367181656e-107
0
3.398182745e-94
0
3.977994771e-76
8.780507563e-77
0
3.57038099e-59
6.809182779e-76
6.908742203e-55
1.815025168e-52
1.294036527e-50
0
0.0002424257649
0.01300267179
0.06759412164
4.900902791e-123
5.137200976e-123
6.331428761e-123
8.427738874e-123
1.220495473e-122
1.948489796e-122
3.408980717e-122
6.500357991e-122
1.351718352e-121
3.064600186e-121
7.577151075e-121
2.041956168e-120
5.994568158e-120
1.925365852e-119
0
5.959535033e-111
4.201316605e-112
3.447282069e-113
1.352991811e-114
5.386180235e-114
4.122370349e-114
0
2.130405352e-99
3.234556725e-101
9.314425223e-107
5.558476798e-95
1.559373598e-92
0
3.373304312e-74
8.780678332e-75
0
7.942988866e-57
1.114880227e-75
2.323193534e-52
4.764131433e-53
2.601262507e-46
2.648496367e-65
0.0002684492807
0.01350277684
0.06832834356
2.59093767e-118
2.711097761e-118
3.326290755e-118
4.40134842e-118
6.327392703e-118
1.000931355e-117
1.732705195e-117
3.264554438e-117
6.699087459e-117
1.497123055e-116
3.645307672e-116
9.667795623e-116
2.792093526e-115
8.804408598e-115
4.068388215e-115
2.057996141e-110
1.164043009e-108
4.062668312e-109
1.858687975e-110
7.597069848e-110
9.088826917e-110
1.37052718e-124
2.41089737e-97
4.730819917e-98
9.315475763e-107
1.229351043e-92
1.952008576e-91
0
5.298179256e-73
1.384224122e-73
0
1.291875239e-55
4.757798965e-71
7.237409759e-51
4.769719802e-53
6.48695744e-43
7.977843476e-62
0.0002951894348
0.01400718274
0.06909658979
1.316144892e-113
1.374677087e-113
1.678625994e-113
2.207360872e-113
3.148767092e-113
4.933411531e-113
8.445621338e-113
1.571284056e-112
3.179782828e-112
6.999651726e-112
1.677097289e-111
4.373685759e-111
1.241562018e-110
3.84111027e-110
1.296800127e-109
3.318825576e-109
7.400451818e-106
2.571743394e-105
2.058406899e-106
9.932922157e-106
1.879792536e-105
7.751974377e-120
1.7919972e-96
5.38080782e-95
9.314425225e-107
3.515584788e-91
9.436791714e-91
3.392258378e-110
2.241420405e-72
6.266532535e-73
0
2.850488825e-55
1.610899271e-52
5.346117088e-50
4.764131433e-53
1.757025965e-40
0
0.0003229203424
0.01451413532
0.06989327085
6.432119674e-109
6.705997816e-109
8.148118025e-109
1.064473461e-108
1.506020338e-108
2.335915394e-108
3.95235059e-108
7.25634979e-108
1.447088967e-107
3.135208578e-107
7.385550258e-107
1.892249159e-106
5.274822414e-106
1.602146546e-105
5.307744841e-105
1.901028476e-104
2.363606861e-103
4.415014396e-102
2.306373819e-102
1.465712711e-101
4.925381474e-101
2.095270248e-101
1.10467462e-96
8.189928993e-93
4.062780051e-94
2.710706274e-90
2.392394197e-90
8.122174527e-110
3.228011076e-72
1.243507919e-72
3.850224658e-74
0
1.148790317e-50
1.571356108e-49
4.769709945e-53
7.479477019e-39
0
0.0003530397165
0.01501984296
0.0707114527
3.027961701e-104
3.151213957e-104
3.80907767e-104
4.942145884e-104
6.931591644e-104
1.063790761e-103
1.77787177e-103
3.218809811e-103
6.320666864e-103
1.346634531e-102
3.116014493e-102
7.835658486e-102
2.142715189e-101
6.382645041e-101
2.073878337e-100
7.311183964e-100
2.813844522e-99
1.397512593e-98
5.786277534e-98
3.195486087e-97
1.541851583e-96
9.112033346e-96
3.863193548e-96
3.273434194e-91
5.23163865e-91
1.150655964e-89
7.324759586e-90
1.194989982e-108
3.22899215e-72
1.516002872e-72
8.901331601e-74
2.169095888e-76
6.365977979e-50
3.530257217e-49
4.76413137e-53
7.299086233e-38
2.27676792e-58
0.0003858557843
0.0155211578
0.07154650327
1.374786268e-99
1.428173565e-99
1.717023487e-99
2.211795466e-99
3.07376404e-99
4.665030931e-99
7.695884217e-99
1.372959022e-98
2.652462394e-98
5.552013065e-98
1.260659504e-97
3.108044805e-97
8.32803638e-97
2.430044799e-96
7.734915866e-96
2.672239922e-95
1.004055655e-94
4.150830499e-94
1.885316202e-93
9.478179169e-93
5.045169627e-92
3.022590769e-91
2.066186144e-90
2.453707841e-89
2.258805167e-88
3.319953141e-87
1.11783296e-85
5.200548626e-105
3.131029598e-72
1.695990542e-72
1.13342552e-73
0
4.889501102e-50
1.294949544e-46
4.769689396e-53
2.221582649e-37
0
0.0004194089358
0.01601723919
0.07239455469
6.028146879e-95
6.250661688e-95
7.472490135e-95
9.553219411e-95
1.314806217e-94
1.972223478e-94
3.209341251e-94
5.637276181e-94
1.0705144e-93
2.199261117e-93
4.895032359e-93
1.181846519e-92
3.099221662e-92
8.846993841e-92
2.755020936e-91
9.315322277e-91
3.428863109e-90
1.388639973e-89
6.16324647e-89
3.001829174e-88
1.604001959e-87
9.575743084e-87
6.574867431e-86
5.511898221e-85
6.450797747e-84
1.259502411e-82
4.981601347e-81
8.93014129e-93
1.781838339e-72
1.064751796e-71
2.166023402e-91
5.133217078e-56
1.861462972e-68
5.200289535e-44
4.764130619e-53
2.526404909e-37
1.260479198e-57
0.0004536923851
0.01650568795
0.07325036342
2.556018011e-90
2.645269217e-90
3.143635341e-90
3.987134501e-90
5.431589629e-90
8.047587118e-90
1.290799106e-89
2.230460605e-89
4.15939866e-89
8.377914572e-89
1.825765263e-88
4.311508512e-88
1.105056859e-87
3.081758669e-87
9.37560783e-87
3.098064665e-86
1.115591273e-85
4.424624158e-85
1.925751913e-84
9.206656212e-84
4.858990249e-83
2.878250713e-82
1.983169265e-81
1.715721297e-80
2.162550124e-79
4.758646146e-78
2.14634631e-76
2.255466505e-74
3.776690016e-72
5.839803879e-70
0
1.86652007e-55
1.17142787e-74
3.125153667e-42
1.707186825e-40
2.524130974e-37
2.878695888e-58
0.0004882748508
0.01698458045
0.07410755146
1.049406156e-85
1.083857972e-85
1.280050629e-85
1.609961761e-85
2.169663392e-85
3.173169469e-85
5.012770492e-85
8.513378053e-85
1.557418658e-84
3.072124114e-84
6.54697651e-84
1.510168245e-83
3.777680916e-83
1.027680028e-82
3.049746851e-82
9.833401278e-82
3.458561553e-81
1.341342185e-80
5.718737146e-80
2.684785525e-79
1.396612322e-78
8.206929848e-78
5.697309534e-77
5.138008083e-76
7.059879579e-75
1.770039954e-73
9.245989587e-72
1.088797887e-69
1.829719444e-67
1.115994391e-65
0
6.953694515e-54
5.557473576e-73
4.478290403e-41
2.535997857e-39
2.521530051e-37
7.370627806e-58
0.0005232085048
0.0174520062
0.07495904878
4.177320695e-81
4.305255047e-81
5.051353432e-81
6.297369421e-81
8.390598886e-81
1.210481117e-80
1.881800942e-80
3.138118421e-80
5.625591902e-80
1.085437767e-79
2.259049765e-79
5.082638258e-79
1.238982995e-78
3.282537123e-78
9.486261096e-78
2.979556288e-77
1.02185593e-76
3.868966331e-76
1.6132833e-75
7.42852233e-75
3.80542887e-74
2.220102676e-73
1.561497152e-72
1.484517897e-71
2.251735208e-70
6.483946268e-69
3.908698491e-67
5.089648321e-65
8.587357486e-63
4.97845406e-61
1.173862653e-57
6.445437009e-53
5.358971478e-58
1.948915984e-40
7.211780117e-39
2.165398766e-37
9.271722157e-58
0.0005580725729
0.01790707544
0.07579785082
1.614404081e-76
1.660060923e-76
1.934377262e-76
2.389174653e-76
3.145395787e-76
4.47292514e-76
6.836909303e-76
1.118377907e-75
1.962386301e-75
3.698862089e-75
7.507511966e-75
1.64502543e-74
3.901263279e-74
1.004838777e-73
2.822753894e-73
8.620764734e-73
2.877590994e-72
1.061760055e-71
4.322944127e-71
1.949265598e-70
9.825451265e-70
5.700281188e-69
4.092584444e-68
4.15195919e-67
7.04264236e-66
2.336101981e-64
1.619831259e-62
2.289040252e-60
3.80111141e-58
3.595616737e-56
2.112820258e-54
0
5.46054175e-41
3.96129596e-40
1.105132478e-38
1.17847791e-37
4.666361538e-58
0.0005925659159
0.01834969577
0.07661738374
6.06578345e-72
6.222072539e-72
7.197927704e-72
8.803426275e-72
1.144459854e-71
1.603030611e-71
2.406950378e-71
3.858068136e-71
6.618184433e-71
1.216975047e-70
2.405286093e-70
5.124427018e-70
1.180215168e-69
2.949668571e-69
8.038698509e-69
2.382328213e-68
7.724194762e-68
2.772034784e-67
1.100028885e-66
4.849486815e-66
2.403146911e-65
1.390494183e-64
1.028959987e-63
1.127997357e-62
2.167745452e-61
8.256742074e-60
6.546954245e-58
9.873022205e-56
1.596359772e-53
1.398892099e-51
7.659387616e-50
0
2.247839215e-37
4.642752177e-39
1.359988209e-38
5.009610737e-38
6.121890109e-57
0.0006264925873
0.01878132918
0.07741249992
2.218908794e-67
2.270048688e-67
2.60617047e-67
3.154697274e-67
4.047135528e-67
5.579251265e-67
8.221441889e-67
1.289872157e-66
2.160431749e-66
3.870118403e-66
7.436673205e-66
1.537806212e-65
3.432984418e-65
8.308343025e-65
2.191978011e-64
6.289899596e-64
1.976539174e-63
6.884533912e-63
2.657436844e-62
1.143409016e-61
5.568745086e-61
3.228047574e-60
2.491341817e-59
2.987807765e-58
6.583912065e-57
2.853650107e-55
2.562385975e-53
4.071696465e-51
6.285313801e-49
5.135227888e-47
2.442718925e-45
0
2.566115089e-35
9.407792543e-37
2.23165039e-35
1.925308322e-34
1.899977786e-53
0.0006589779755
0.0192041392
0.07817987515
7.914229107e-63
8.073215495e-63
9.194807354e-63
1.100964008e-62
1.392890414e-62
1.888359419e-62
2.728226925e-62
4.184854812e-62
6.834850693e-62
1.190985341e-61
2.221289042e-61
4.450079048e-61
9.609613053e-61
2.24709233e-60
5.725974065e-60
1.587132522e-59
4.822133384e-59
1.626372801e-58
6.092970875e-58
2.554008942e-57
1.223197243e-56
7.154816159e-56
5.835257916e-55
7.747581171e-54
1.974169971e-52
9.616035472e-51
9.628959749e-49
1.598917867e-46
2.313273079e-44
1.767522811e-42
7.19419842e-41
0
1.680184017e-34
5.716260574e-34
9.942151782e-31
9.212224792e-30
9.07685449e-49
0.0006881084929
0.01961910578
0.07891706618
2.756497995e-58
2.802938688e-58
3.165663835e-58
3.747390831e-58
4.672320249e-58
6.224234074e-58
8.807912252e-58
1.319367912e-57
2.098360246e-57
3.551217885e-57
6.417400086e-57
1.243111e-56
2.591018982e-56
5.840214202e-56
1.433773542e-55
3.828909738e-55
1.121825955e-54
3.654352702e-54
1.325486434e-53
5.403178151e-53
2.54996293e-52
1.521162048e-51
1.328645035e-50
1.976080111e-49
5.828338691e-48
3.151997633e-46
3.443758256e-44
5.943257517e-42
7.95190526e-40
5.663050687e-38
1.926355074e-36
7.245705796e-35
0
3.229523119e-29
4.42482855e-26
4.357440072e-25
7.019606134e-44
0.0007094381672
0.02001969636
0.07961774472
9.390272099e-54
9.514941214e-54
1.065203837e-53
1.245899872e-53
1.529842223e-53
2.000914682e-53
2.770567029e-53
4.047967019e-53
6.260545256e-53
1.027382737e-52
1.79557045e-52
3.356168136e-52
6.736296657e-52
1.459885467e-51
3.443694347e-51
8.835423651e-51
2.489202225e-50
7.809709885e-50
2.7351666e-49
1.082686039e-48
5.057720426e-48
3.121599804e-47
2.957821931e-46
4.983521874e-45
1.683949117e-43
1.002641505e-41
1.163440597e-39
2.074507091e-37
2.556294518e-35
1.672563062e-33
4.691801856e-32
1.576124355e-30
0
1.702282158e-24
1.944086966e-21