/*--------------------------------*- C++ -*----------------------------------*\
| =========                 |                                                 |
| \\      /  F ield         | OpenFOAM: The Open Source CFD Toolbox           |
|  \\    /   O peration     | Version:  v1912                                 |
|   \\  /    A nd           | Website:  www.openfoam.com                      |
|    \\/     M anipulation  |                                                 |
\*---------------------------------------------------------------------------*/
FoamFile
{
    version     2.0;
    format      ascii;
    class       volScalarField;
    location    "0.5";
    object      alphat.gas;
}
// * * * * * * * * * * * * * * * * * * * * * * * * * * * * * * * * * * * * * //

dimensions      [1 -1 -1 0 0 0 0];


internalField   nonuniform List<scalar> 
4800
(
2.43924728e-08
4.730994291e-08
6.377682385e-08
7.74068993e-08
8.938619289e-08
1.002820012e-07
1.104290172e-07
1.200513944e-07
1.293138842e-07
1.38346961e-07
1.472606258e-07
1.561526896e-07
1.651141377e-07
1.742328472e-07
1.835963454e-07
1.932939943e-07
2.034188431e-07
2.140693042e-07
2.253507717e-07
2.373772806e-07
2.502733e-07
2.641757686e-07
2.792364992e-07
2.956251277e-07
3.135328435e-07
3.331772366e-07
3.548087619e-07
3.787195633e-07
4.052557968e-07
4.348352257e-07
4.679732916e-07
5.053187907e-07
5.477416349e-07
5.962438156e-07
6.528573638e-07
7.209842767e-07
7.814082266e-07
9.859070459e-07
4.964322402e-07
1.591345865e-06
4.013664281e-08
7.971363084e-08
1.085902978e-07
1.325444382e-07
1.535022503e-07
1.723784661e-07
1.896981827e-07
2.057966873e-07
2.20903838e-07
2.351855139e-07
2.487661726e-07
2.617420955e-07
2.741896335e-07
2.861705894e-07
2.977358663e-07
3.089280267e-07
3.197831357e-07
3.303321271e-07
3.406018386e-07
3.506158168e-07
3.603949614e-07
3.69958056e-07
3.793222233e-07
3.88503336e-07
3.975164052e-07
4.063759787e-07
4.150965737e-07
4.236931802e-07
4.321818854e-07
4.405806223e-07
4.489109777e-07
4.571897234e-07
4.655342967e-07
4.73289227e-07
4.847273119e-07
4.808320338e-07
5.257062221e-07
4.049991036e-07
7.921646698e-07
2.659367654e-06
3.911732821e-08
7.761847824e-08
1.056942538e-07
1.289812557e-07
1.493554646e-07
1.677065167e-07
1.845445706e-07
2.001950929e-07
2.148810393e-07
2.287631981e-07
2.419621326e-07
2.545710573e-07
2.666638504e-07
2.783002787e-07
2.895295379e-07
3.003927296e-07
3.109246435e-07
3.211550715e-07
3.31109798e-07
3.40811364e-07
3.502796691e-07
3.595324586e-07
3.685857325e-07
3.774540991e-07
3.861511057e-07
3.946895641e-07
4.030819058e-07
4.113406054e-07
4.194787348e-07
4.275107217e-07
4.354538421e-07
4.433261274e-07
4.511904108e-07
4.587997496e-07
4.682793531e-07
4.675344001e-07
5.134231299e-07
3.780031967e-07
6.211786765e-07
3.113162914e-06
3.918076837e-08
7.775102319e-08
1.058776908e-07
1.292068898e-07
1.496179054e-07
1.680020956e-07
1.848706619e-07
2.005497655e-07
2.152628579e-07
2.291710984e-07
2.423953386e-07
2.550290241e-07
2.671462234e-07
2.788068632e-07
2.900602766e-07
3.009476862e-07
3.115039904e-07
3.217590813e-07
3.317388388e-07
3.414658974e-07
3.509602513e-07
3.602397454e-07
3.693204857e-07
3.782171981e-07
3.869435595e-07
3.955125243e-07
4.039366754e-07
4.122286329e-07
4.204015709e-07
4.284699004e-07
4.364504131e-07
4.443621736e-07
4.522390715e-07
4.600910235e-07
4.680340842e-07
4.745951038e-07
4.954671405e-07
4.693104223e-07
1.019887035e-06
3.467110736e-06
3.916970695e-08
7.77281567e-08
1.058456141e-07
1.291671357e-07
1.495713525e-07
1.679493455e-07
1.848121531e-07
2.004858291e-07
2.151937494e-07
2.290970175e-07
2.423164418e-07
2.549454335e-07
2.670580322e-07
2.787141395e-07
2.899630657e-07
3.008460108e-07
3.113978503e-07
3.216484511e-07
3.316236635e-07
3.413460864e-07
3.50835669e-07
3.601101972e-07
3.691856985e-07
3.780767918e-07
3.867970036e-07
3.953590744e-07
4.037752729e-07
4.120577477e-07
4.202189439e-07
4.282721315e-07
4.36231991e-07
4.44116821e-07
4.519341606e-07
4.598223282e-07
4.671446019e-07
4.757219114e-07
4.928531328e-07
5.08927372e-07
1.000942135e-06
3.753693041e-06
3.916393333e-08
7.771662416e-08
1.058292894e-07
1.291468279e-07
1.495474857e-07
1.679222186e-07
1.847819951e-07
2.00452824e-07
2.151580508e-07
2.290587574e-07
2.422757365e-07
2.549023869e-07
2.670127382e-07
2.786666835e-07
2.899135243e-07
3.007944517e-07
3.113443303e-07
3.215930134e-07
3.315663337e-07
3.412868659e-07
3.507745259e-07
3.600470542e-07
3.691204142e-07
3.780091345e-07
3.867266124e-07
3.952854008e-07
4.036974923e-07
4.119746213e-07
4.201286012e-07
4.281717279e-07
4.361170598e-07
4.43981584e-07
4.517577712e-07
4.596575962e-07
4.666675496e-07
4.760451232e-07
4.878012451e-07
3.442696537e-07
1.129139645e-06
4.01672625e-06
3.915783106e-08
7.770441046e-08
1.058119025e-07
1.291251427e-07
1.495219508e-07
1.678931492e-07
1.847496318e-07
2.004173592e-07
2.151196439e-07
2.290175445e-07
2.42231836e-07
2.548559037e-07
2.669637661e-07
2.78615306e-07
2.898598151e-07
3.007384734e-07
3.112861327e-07
3.2153263e-07
3.315037763e-07
3.412221176e-07
3.507075308e-07
3.599777027e-07
3.69048523e-07
3.779344176e-07
3.866486401e-07
3.952035394e-07
4.036108166e-07
4.118817842e-07
4.200276402e-07
4.280597679e-07
4.359900439e-07
4.438320148e-07
4.515876238e-07
4.59421603e-07
4.660121608e-07
4.795332163e-07
4.694766889e-07
4.243984432e-07
1.435279103e-06
4.25458295e-06
3.915180183e-08
7.769239746e-08
1.057946994e-07
1.291036329e-07
1.494965729e-07
1.678642125e-07
1.847173736e-07
2.003819704e-07
2.15081284e-07
2.289763504e-07
2.421879283e-07
2.548093902e-07
2.669147439e-07
2.785638625e-07
2.898060282e-07
3.006824102e-07
3.11227847e-07
3.214721584e-07
3.314411331e-07
3.411572863e-07
3.506404536e-07
3.599082651e-07
3.689765334e-07
3.778595781e-07
3.865705068e-07
3.951214658e-07
4.035238743e-07
4.117886512e-07
4.19926445e-07
4.279478724e-07
4.358638851e-07
4.436851717e-07
4.51427435e-07
4.591391726e-07
4.659154283e-07
4.81527773e-07
4.404482191e-07
5.552038231e-07
2.045255621e-06
4.495535112e-06
3.914581837e-08
7.768052545e-08
1.057775957e-07
1.29082194e-07
1.494712296e-07
1.678352696e-07
1.846850661e-07
2.003464883e-07
2.150427869e-07
2.289349763e-07
2.421437998e-07
2.547626176e-07
2.668654275e-07
2.785120937e-07
2.89751889e-07
3.006259719e-07
3.111691676e-07
3.214112787e-07
3.313780703e-07
3.410920261e-07
3.505729389e-07
3.598383807e-07
3.689040854e-07
3.777842663e-07
3.864918867e-07
3.950388987e-07
4.03436458e-07
4.116951279e-07
4.198250821e-07
4.278363278e-07
4.357388427e-07
4.435448592e-07
4.5123922e-07
4.591406416e-07
4.644506735e-07
4.86775957e-07
4.19599159e-07
9.012265229e-07
2.535764079e-06
4.72327204e-06
3.913988477e-08
7.766880527e-08
1.057606078e-07
1.290608473e-07
1.494459471e-07
1.678063513e-07
1.846527446e-07
2.003109525e-07
2.150041964e-07
2.288934706e-07
2.420995033e-07
2.547156436e-07
2.668158801e-07
2.784600687e-07
2.896974733e-07
3.005692425e-07
3.111101885e-07
3.213500964e-07
3.313147082e-07
3.410264758e-07
3.505051487e-07
3.597682411e-07
3.68831409e-07
3.777087617e-07
3.864131251e-07
3.94956269e-07
4.033491086e-07
4.116018946e-07
4.197244004e-07
4.277261372e-07
4.356163748e-07
4.434079976e-07
4.510622149e-07
4.592140505e-07
4.615044946e-07
5.075106803e-07
2.638755888e-07
3.800045024e-07
3.377699528e-06
4.958806982e-06
3.913400328e-08
7.765724358e-08
1.057437457e-07
1.290396067e-07
1.494207426e-07
1.677774782e-07
1.846204328e-07
2.002753898e-07
2.149655427e-07
2.288518664e-07
2.420550752e-07
2.546685082e-07
2.667661455e-07
2.784078357e-07
2.896428348e-07
3.00512282e-07
3.110509773e-07
3.212886892e-07
3.312511368e-07
3.409607407e-07
3.504372084e-07
3.59697997e-07
3.687586873e-07
3.776332892e-07
3.863344998e-07
3.948739207e-07
4.032622513e-07
4.115094712e-07
4.196250183e-07
4.276179952e-07
4.354970604e-07
4.432762791e-07
4.508916008e-07
4.59258198e-07
4.596176003e-07
5.14033415e-07
1.888570788e-07
1.188766077e-06
3.865469708e-06
5.195368438e-06
3.91281768e-08
7.764584845e-08
1.057270214e-07
1.290184884e-07
1.493956365e-07
1.677486744e-07
1.845881585e-07
2.002398318e-07
2.149268608e-07
2.288102023e-07
2.420105579e-07
2.546212575e-07
2.667162741e-07
2.783554498e-07
2.895880341e-07
3.004551578e-07
3.109916096e-07
3.212271426e-07
3.311874541e-07
3.408949346e-07
3.503692509e-07
3.596278056e-07
3.686861076e-07
3.775580737e-07
3.862562814e-07
3.947921778e-07
4.031762722e-07
4.114183105e-07
4.195274462e-07
4.275124275e-07
4.353814286e-07
4.431494502e-07
4.507334815e-07
4.592037047e-07
4.597245091e-07
4.949730264e-07
5.121789194e-07
1.638089701e-06
4.326592e-06
5.432496025e-06
3.91224087e-08
7.763462902e-08
1.057104487e-07
1.289975106e-07
1.493706512e-07
1.677199667e-07
1.845559527e-07
2.002043131e-07
2.148881892e-07
2.287685207e-07
2.419659976e-07
2.545739418e-07
2.666663206e-07
2.783029708e-07
2.895331367e-07
3.003979419e-07
3.109321657e-07
3.211655468e-07
3.311237624e-07
3.408291747e-07
3.503014119e-07
3.595578251e-07
3.686138555e-07
3.774833336e-07
3.861787252e-07
3.947113387e-07
4.030915165e-07
4.113288005e-07
4.194320963e-07
4.274098481e-07
4.352699205e-07
4.430261273e-07
4.506161838e-07
4.586866164e-07
4.638935172e-07
4.760111251e-07
3.726342968e-07
6.424059674e-07
4.751809114e-06
5.669050786e-06
3.911670283e-08
7.762359552e-08
1.056940424e-07
1.289766937e-07
1.493458119e-07
1.676913847e-07
1.845238493e-07
2.001688722e-07
2.148495705e-07
2.287268681e-07
2.419214449e-07
2.54526616e-07
2.666163443e-07
2.782504631e-07
2.894782126e-07
3.003407115e-07
3.108727307e-07
3.211039967e-07
3.310601683e-07
3.40763582e-07
3.502338298e-07
3.594882144e-07
3.685421144e-07
3.774092803e-07
3.861020732e-07
3.946316803e-07
4.030082942e-07
4.112412774e-07
4.19339315e-07
4.27310603e-07
4.351627432e-07
4.429085888e-07
4.504958833e-07
4.584213228e-07
4.647489329e-07
4.730526542e-07
3.136863781e-07
9.102299234e-07
5.149578858e-06
5.904765095e-06
3.911106361e-08
7.761275939e-08
1.056778195e-07
1.289560599e-07
1.493211462e-07
1.676629611e-07
1.844918859e-07
2.001335512e-07
2.148110512e-07
2.286852954e-07
2.418769551e-07
2.544793399e-07
2.665664098e-07
2.781979962e-07
2.894233374e-07
3.002835485e-07
3.108133945e-07
3.210425917e-07
3.30996783e-07
3.406982813e-07
3.501666453e-07
3.594191335e-07
3.684710665e-07
3.773361188e-07
3.860265583e-07
3.945534618e-07
4.029268876e-07
4.111560372e-07
4.192494084e-07
4.272149841e-07
4.350601876e-07
4.427958641e-07
4.50396373e-07
4.580146478e-07
4.670083117e-07
4.561724747e-07
4.038284361e-07
1.176195068e-06
5.526427298e-06
6.140063985e-06
3.910549603e-08
7.760213327e-08
1.056617985e-07
1.289356339e-07
1.492966845e-07
1.67634732e-07
1.844601037e-07
2.000983962e-07
2.147726823e-07
2.286438585e-07
2.418325884e-07
2.544321783e-07
2.665165868e-07
2.781456452e-07
2.893685918e-07
3.002265405e-07
3.107542526e-07
3.209814367e-07
3.309337222e-07
3.406334013e-07
3.501000029e-07
3.593507448e-07
3.684008938e-07
3.772640519e-07
3.859524059e-07
3.944769296e-07
4.028475594e-07
4.110733539e-07
4.191626514e-07
4.271232446e-07
4.349624649e-07
4.426884405e-07
4.503045464e-07
4.577903899e-07
4.659717754e-07
4.533134462e-07
6.924862251e-07
1.425077028e-06
5.885752596e-06
6.375578292e-06
3.910000568e-08
7.759173107e-08
1.056459996e-07
1.289154428e-07
1.492724602e-07
1.676067366e-07
1.844285478e-07
2.000634578e-07
2.147345196e-07
2.286026179e-07
2.417884106e-07
2.543852018e-07
2.664669508e-07
2.780934909e-07
2.893140625e-07
3.00169781e-07
3.106954063e-07
3.209206421e-07
3.308711073e-07
3.405690764e-07
3.500340518e-07
3.592832143e-07
3.683317791e-07
3.77193284e-07
3.858798395e-07
3.944023239e-07
4.027705625e-07
4.109934879e-07
4.190792976e-07
4.270356217e-07
4.348696174e-07
4.425888231e-07
4.50202232e-07
4.57604655e-07
4.660194196e-07
4.661292733e-07
7.316723204e-07
1.656134632e-06
6.23049624e-06
6.61213741e-06
3.909459881e-08
7.758156805e-08
1.056304453e-07
1.288955163e-07
1.492485098e-07
1.67579018e-07
1.843972674e-07
2.000287913e-07
2.146966239e-07
2.285616401e-07
2.417444931e-07
2.543384871e-07
2.664175838e-07
2.780416209e-07
2.892598434e-07
3.001133706e-07
3.106369641e-07
3.208603256e-07
3.308090668e-07
3.405054477e-07
3.499689479e-07
3.592167138e-07
3.682639117e-07
3.771240235e-07
3.858090848e-07
3.943298856e-07
4.026961489e-07
4.109166935e-07
4.189995915e-07
4.269523288e-07
4.347819938e-07
4.424939041e-07
4.501323665e-07
4.571222016e-07
4.687644192e-07
4.615929337e-07
8.76814462e-07
1.875519279e-06
6.563129804e-06
6.850657239e-06
3.908928234e-08
7.757166086e-08
1.056151599e-07
1.288758867e-07
1.492248732e-07
1.675516232e-07
1.843663166e-07
1.99994457e-07
2.146590619e-07
2.285209974e-07
2.417009142e-07
2.54292118e-07
2.663685753e-07
2.779901304e-07
2.892060359e-07
3.000574178e-07
3.105790426e-07
3.208006134e-07
3.30747738e-07
3.404426656e-07
3.49904856e-07
3.591514236e-07
3.68197492e-07
3.770564882e-07
3.85740377e-07
3.942598645e-07
4.02624578e-07
4.108432306e-07
4.189237808e-07
4.268735892e-07
4.346997033e-07
4.424052057e-07
4.500730609e-07
4.565670309e-07
4.732478926e-07
4.131498938e-07
8.538415281e-07
2.143109802e-06
6.886090898e-06
7.091897505e-06
3.908406392e-08
7.756202756e-08
1.056001698e-07
1.288565892e-07
1.492015938e-07
1.675246036e-07
1.843357539e-07
1.999605208e-07
2.146219061e-07
2.284807689e-07
2.416577589e-07
2.542461856e-07
2.663200225e-07
2.779391231e-07
2.891527504e-07
3.000020405e-07
3.105217683e-07
3.20741642e-07
3.306872691e-07
3.40380892e-07
3.498419534e-07
3.590875389e-07
3.68132734e-07
3.769909112e-07
3.856739674e-07
3.941925275e-07
4.025561262e-07
4.107733757e-07
4.188521288e-07
4.267996369e-07
4.346228832e-07
4.423238804e-07
4.500044872e-07
4.562401185e-07
4.753082472e-07
3.990716795e-07
9.743269342e-07
2.370622801e-06
7.20060738e-06
7.336676659e-06
3.907895192e-08
7.755268767e-08
1.055855039e-07
1.28837662e-07
1.491787187e-07
1.674980148e-07
1.843056435e-07
1.999270545e-07
2.145852359e-07
2.28441041e-07
2.416151207e-07
2.5420079e-07
2.66272032e-07
2.778887124e-07
2.891001077e-07
2.999473677e-07
3.104652795e-07
3.206835604e-07
3.306278221e-07
3.403203034e-07
3.497804333e-07
3.59025273e-07
3.680698711e-07
3.769275474e-07
3.856101316e-07
3.941281679e-07
4.024910982e-07
4.107074348e-07
4.187849275e-07
4.267307285e-07
4.345517578e-07
4.422493679e-07
4.499388849e-07
4.559660488e-07
4.770284058e-07
3.953249248e-07
1.015128402e-06
2.635078381e-06
7.506334265e-06
7.585836671e-06
3.907395552e-08
7.754366217e-08
1.055711933e-07
1.288191465e-07
1.49156299e-07
1.674719175e-07
1.842760548e-07
1.998941364e-07
2.145491376e-07
2.284019082e-07
2.415731015e-07
2.541560406e-07
2.662247208e-07
2.77839023e-07
2.890482407e-07
2.998935413e-07
3.104097286e-07
3.206265332e-07
3.305695756e-07
3.402610948e-07
3.497205102e-07
3.58964862e-07
3.680091631e-07
3.768666816e-07
3.855491791e-07
3.940671165e-07
4.0242984e-07
4.106457579e-07
4.187225143e-07
4.266671637e-07
4.344865639e-07
4.421816013e-07
4.498789668e-07
4.557070212e-07
4.788912691e-07
3.935583068e-07
1.178688635e-06
2.88518525e-06
7.804450804e-06
7.840383523e-06
3.906908468e-08
7.75349735e-08
1.055572713e-07
1.288010873e-07
1.491343901e-07
1.674463772e-07
1.842470634e-07
1.998618515e-07
2.145137058e-07
2.283634736e-07
2.415318131e-07
2.541120578e-07
2.661782178e-07
2.777901924e-07
2.889972963e-07
2.998407186e-07
3.103552845e-07
3.205707432e-07
3.305127284e-07
3.402034842e-07
3.496624244e-07
3.589065715e-07
3.679509037e-07
3.768086371e-07
3.85491463e-07
3.94009754e-07
4.023727533e-07
4.105887561e-07
4.186652913e-07
4.266093083e-07
4.34427577e-07
4.421210775e-07
4.498167962e-07
4.555865715e-07
4.80077533e-07
3.817588963e-07
6.387000592e-07
3.053982169e-06
8.094851726e-06
8.100639007e-06
3.906435018e-08
7.752664554e-08
1.05543774e-07
1.287835325e-07
1.491130515e-07
1.674214647e-07
1.842187512e-07
1.998302924e-07
2.144790431e-07
2.283258501e-07
2.414913783e-07
2.540689738e-07
2.661326648e-07
2.777423727e-07
2.889474373e-07
2.997890745e-07
3.10302136e-07
3.205163952e-07
3.304575044e-07
3.401477176e-07
3.496064483e-07
3.588507039e-07
3.678954292e-07
3.767537869e-07
3.854373935e-07
3.939565262e-07
4.023203133e-07
4.105369222e-07
4.186137493e-07
4.265576204e-07
4.343751823e-07
4.420679505e-07
4.497538596e-07
4.555848498e-07
4.803251876e-07
3.672978608e-07
6.820746755e-07
1.108180715e-06
8.391962017e-06
8.365969799e-06
3.905976362e-08
7.751870351e-08
1.055307396e-07
1.287665333e-07
1.49092347e-07
1.673972563e-07
1.841912065e-07
1.997995592e-07
2.144452614e-07
2.282891609e-07
2.414519313e-07
2.540269342e-07
2.660882189e-07
2.776957328e-07
2.888988455e-07
2.99738805e-07
3.102504954e-07
3.204637206e-07
3.304041571e-07
3.400940756e-07
3.495528941e-07
3.587976078e-07
3.678431294e-07
3.76702566e-07
3.853874533e-07
3.939079618e-07
4.022730896e-07
4.104908548e-07
4.185684954e-07
4.265126838e-07
4.343299057e-07
4.420223553e-07
4.496942027e-07
4.556466549e-07
4.801207412e-07
3.576361875e-07
7.61799407e-07
1.448651311e-06
8.686265213e-06
8.636598657e-06
3.905533746e-08
7.751117384e-08
1.055182089e-07
1.287501444e-07
1.490723452e-07
1.67373834e-07
1.841645247e-07
1.997697607e-07
2.144124824e-07
2.282535406e-07
2.414136198e-07
2.539860996e-07
2.660450539e-07
2.776504606e-07
2.888517241e-07
2.996901304e-07
3.102006027e-07
3.20412982e-07
3.303529764e-07
3.400428804e-07
3.495021221e-07
3.587476884e-07
3.677944605e-07
3.766554874e-07
3.853422156e-07
3.93864695e-07
4.022317724e-07
4.104512882e-07
4.185302879e-07
4.264752472e-07
4.342924525e-07
4.419845626e-07
4.496425974e-07
4.557330757e-07
4.796456933e-07
3.587867356e-07
7.983113328e-07
1.804408588e-06
8.97782999e-06
8.912728117e-06
3.9051085e-08
7.750408404e-08
1.055062247e-07
1.287344239e-07
1.490531188e-07
1.673512854e-07
1.841388081e-07
1.997410138e-07
2.143808378e-07
2.282191357e-07
2.413766051e-07
2.539466466e-07
2.660033625e-07
2.776067657e-07
2.88806301e-07
2.996432992e-07
3.1015273e-07
3.20364479e-07
3.303042952e-07
3.399945046e-07
3.494545518e-07
3.5870142e-07
3.677499607e-07
3.766131607e-07
3.853023676e-07
3.938274929e-07
4.02197205e-07
4.10419131e-07
4.185000786e-07
4.264462706e-07
4.34263789e-07
4.419541593e-07
4.496239041e-07
4.555392197e-07
4.810721172e-07
3.471814821e-07
8.779998717e-07
2.150166845e-06
9.266835649e-06
9.194361758e-06
3.90470204e-08
7.74974624e-08
1.054948323e-07
1.287194331e-07
1.49034745e-07
1.673297038e-07
1.841141662e-07
1.997134444e-07
2.143504702e-07
2.281861056e-07
2.413410638e-07
2.539087697e-07
2.659633579e-07
2.775648814e-07
2.887628318e-07
2.995985921e-07
3.101071868e-07
3.203185555e-07
3.30258498e-07
3.399493809e-07
3.494106736e-07
3.586593614e-07
3.677102679e-07
3.765763137e-07
3.852687359e-07
3.937972854e-07
4.021704197e-07
4.103955079e-07
4.184790637e-07
4.264269861e-07
4.342450652e-07
4.419338607e-07
4.496109462e-07
4.554037989e-07
4.820349959e-07
3.400948584e-07
9.619050959e-07
2.452508186e-06
9.552505476e-06
9.481329243e-06
3.904315873e-08
7.749133757e-08
1.054840787e-07
1.287052358e-07
1.490173049e-07
1.673091876e-07
1.840907155e-07
1.996871872e-07
2.143215329e-07
2.28154623e-07
2.413071888e-07
2.538726828e-07
2.659252764e-07
2.775250683e-07
2.887216043e-07
2.995563279e-07
3.100643271e-07
3.202756074e-07
3.302160305e-07
3.399080145e-07
3.493710633e-07
3.586221714e-07
3.676761366e-07
3.765458097e-07
3.852423038e-07
3.937751853e-07
4.021526621e-07
4.103817923e-07
4.184687248e-07
4.264189466e-07
4.342378476e-07
4.419251256e-07
4.496079202e-07
4.552566061e-07
4.835770941e-07
3.177792138e-07
2.311581184e-07
2.735854068e-06
9.834612729e-06
9.773410091e-06
3.903951573e-08
7.748573764e-08
1.054740123e-07
1.286918984e-07
1.490008832e-07
1.672898405e-07
1.840685788e-07
1.996623853e-07
2.142941901e-07
2.281248742e-07
2.412751898e-07
2.538386205e-07
2.658893798e-07
2.774876187e-07
2.886829445e-07
2.995168696e-07
3.100245576e-07
3.202360919e-07
3.301774091e-07
3.398709929e-07
3.493363935e-07
3.585906222e-07
3.676484537e-07
3.76522665e-07
3.85224232e-07
3.937625097e-07
4.021454136e-07
4.103796289e-07
4.184708554e-07
4.264240621e-07
4.342441192e-07
4.4192965e-07
4.496199532e-07
4.550767287e-07
4.855693092e-07
2.837633044e-07
3.999965969e-07
3.064702508e-06
1.011370077e-05
1.0070152e-05
3.903610742e-08
7.748068985e-08
1.054646827e-07
1.286794897e-07
1.48985568e-07
1.672717712e-07
1.840478867e-07
1.996391921e-07
2.142686195e-07
2.280970629e-07
2.412452985e-07
2.538068453e-07
2.658559635e-07
2.774528626e-07
2.886472201e-07
2.994806288e-07
3.099883412e-07
3.202005324e-07
3.301432284e-07
3.398389945e-07
3.493074445e-07
3.585656192e-07
3.676282756e-07
3.765081108e-07
3.852159448e-07
3.937608869e-07
4.021505076e-07
4.103910454e-07
4.184876552e-07
4.264446764e-07
4.342663038e-07
4.419501426e-07
4.496443552e-07
4.549356068e-07
4.873299249e-07
2.49239008e-07
5.31210818e-07
3.346944493e-06
1.03887384e-05
1.037091361e-05
3.903295616e-08
7.747623192e-08
1.054561474e-07
1.286680851e-07
1.489714555e-07
1.672550979e-07
1.840287811e-07
1.996177749e-07
2.142450154e-07
2.280714121e-07
2.41217768e-07
2.537776421e-07
2.658253475e-07
2.774211594e-07
2.886148349e-07
2.994480601e-07
3.099561915e-07
3.201695153e-07
3.301141666e-07
3.398128108e-07
3.492851462e-07
3.585482628e-07
3.676169104e-07
3.765037012e-07
3.852192749e-07
3.937724472e-07
4.021703689e-07
4.104187306e-07
4.185220206e-07
4.264838247e-07
4.343075102e-07
4.419896016e-07
4.496851022e-07
4.548304939e-07
4.888831498e-07
2.093581201e-07
6.868064043e-07
3.64565881e-06
1.065812061e-05
1.067465204e-05
3.903014389e-08
7.747240504e-08
1.05448481e-07
1.286577672e-07
1.489586432e-07
1.67239937e-07
1.840113999e-07
1.995982956e-07
2.142235663e-07
2.28048139e-07
2.411928478e-07
2.53751296e-07
2.657978563e-07
2.773928799e-07
2.885862157e-07
2.994196562e-07
3.099286789e-07
3.201437068e-07
3.300910145e-07
3.397933934e-07
3.492706426e-07
3.585399166e-07
3.676159716e-07
3.765113408e-07
3.852364687e-07
3.937998309e-07
4.022080705e-07
4.104661925e-07
4.185778358e-07
4.265456256e-07
4.343719257e-07
4.420519551e-07
4.497494819e-07
4.547061383e-07
4.908882162e-07
1.502843266e-07
8.52912475e-07
4.005664817e-06
1.091994812e-05
1.098181104e-05
3.902795571e-08
7.746883575e-08
1.054417117e-07
1.286485758e-07
1.489471951e-07
1.672263759e-07
1.839958546e-07
1.99580892e-07
2.142044391e-07
2.280274446e-07
2.411707773e-07
2.53728091e-07
2.657738255e-07
2.773684195e-07
2.885618311e-07
2.993959798e-07
3.09906486e-07
3.201239283e-07
3.300747402e-07
3.397818734e-07
3.492652666e-07
3.585421641e-07
3.676273456e-07
3.765332698e-07
3.852701714e-07
3.938461437e-07
4.022672399e-07
4.105376394e-07
4.186599136e-07
4.266354144e-07
4.344651599e-07
4.421429419e-07
4.498386082e-07
4.546367896e-07
4.924818548e-07
1.127003674e-07
9.834827591e-07
4.361568017e-06
1.11764529e-05
1.129383497e-05
3.902628347e-08
7.746563646e-08
1.054358535e-07
1.286405493e-07
1.489371764e-07
1.672145075e-07
1.839822672e-07
1.995657174e-07
2.14187822e-07
2.280095561e-07
2.411518311e-07
2.537083612e-07
2.657536653e-07
2.77348279e-07
2.885422796e-07
2.993777298e-07
3.098904234e-07
3.201111262e-07
3.300664604e-07
3.39779577e-07
3.492705963e-07
3.585568963e-07
3.676533153e-07
3.765722489e-07
3.853237038e-07
3.93915331e-07
4.023524835e-07
4.106383447e-07
4.187741917e-07
4.267597937e-07
4.345943824e-07
4.422697858e-07
4.49962012e-07
4.545875298e-07
4.930584878e-07
4.244462202e-07
1.061820218e-06
1.504444369e-06
1.143961139e-05
1.160954548e-05
3.902503894e-08
7.746298328e-08
1.054309497e-07
1.286337571e-07
1.489286846e-07
1.672044623e-07
1.839708053e-07
1.995529806e-07
2.141739698e-07
2.279947795e-07
2.411363681e-07
2.536925156e-07
2.65737832e-07
2.773329752e-07
2.885281698e-07
2.993656452e-07
3.098813816e-07
3.201063553e-07
3.300674384e-07
3.397880494e-07
3.492885276e-07
3.585864372e-07
3.676967209e-07
3.766317355e-07
3.854012543e-07
3.940124293e-07
4.024697823e-07
4.107752758e-07
4.189285585e-07
4.26927403e-07
4.347688047e-07
4.424419759e-07
4.501295298e-07
4.545606346e-07
4.953564439e-07
8.224082255e-08
1.094973114e-06
1.886660283e-06
1.170866574e-05
1.192732931e-05
3.902419728e-08
7.746118211e-08
1.054271407e-07
1.286283385e-07
1.489218585e-07
1.671963915e-07
1.839616432e-07
1.995428878e-07
2.141631288e-07
2.279834096e-07
2.411247422e-07
2.536809804e-07
2.657268321e-07
2.773230839e-07
2.885201286e-07
2.993604212e-07
3.098802123e-07
3.201107444e-07
3.300791515e-07
3.39809135e-07
3.493213322e-07
3.586335904e-07
3.677610181e-07
3.767159815e-07
3.855080311e-07
3.941437657e-07
4.026267338e-07
4.109574167e-07
4.19133415e-07
4.271499111e-07
4.350009398e-07
4.426724133e-07
4.503498075e-07
4.547586867e-07
4.883712466e-07
4.690320516e-07
1.135331486e-06
2.244156757e-06
1.197508432e-05
1.224673991e-05
3.902366668e-08
7.746005249e-08
1.054243629e-07
1.286242828e-07
1.489167224e-07
1.671903481e-07
1.83954864e-07
1.995355575e-07
2.141554599e-07
2.279756598e-07
2.411172348e-07
2.536741283e-07
2.65721165e-07
2.773192759e-07
2.885190333e-07
2.993631224e-07
3.098880879e-07
3.201255582e-07
3.301031138e-07
3.398448167e-07
3.493716302e-07
3.587017166e-07
3.678504422e-07
3.768302856e-07
3.856506118e-07
3.943174329e-07
4.028331733e-07
4.11196524e-07
4.19402521e-07
4.274430102e-07
4.35308021e-07
4.429790566e-07
4.506420058e-07
4.548871586e-07
4.897310767e-07
5.122007689e-07
1.192150173e-06
2.625045949e-06
1.223899387e-05
1.256772922e-05
3.902347357e-08
7.745962633e-08
1.054226356e-07
1.286216205e-07
1.489133269e-07
1.671864071e-07
1.839505728e-07
1.995311322e-07
2.141511526e-07
2.27971777e-07
2.4111416e-07
2.5367235e-07
2.657213114e-07
2.773221573e-07
2.885256895e-07
2.993748625e-07
3.099065237e-07
3.201526853e-07
3.30141439e-07
3.398974693e-07
3.494423548e-07
3.587946732e-07
3.679700695e-07
3.769811848e-07
3.858372838e-07
3.945438045e-07
4.031019112e-07
4.115081582e-07
4.197543876e-07
4.27828142e-07
4.357140415e-07
4.433876614e-07
4.510213058e-07
4.553765003e-07
4.924077847e-07
1.7480989e-07
1.267211149e-06
2.975593103e-06
1.249911447e-05
1.289034044e-05
3.902362165e-08
7.745990455e-08
1.054219648e-07
1.28620368e-07
1.489117051e-07
1.671846235e-07
1.839488523e-07
1.995297303e-07
2.141503716e-07
2.279719857e-07
2.411158198e-07
2.53676047e-07
2.657277963e-07
2.773323944e-07
2.885409153e-07
2.993966532e-07
3.099368733e-07
3.201940654e-07
3.301968333e-07
3.399705082e-07
3.495374839e-07
3.589172047e-07
3.68125969e-07
3.771766607e-07
3.860784479e-07
3.948362041e-07
4.03449737e-07
4.119131069e-07
4.202142313e-07
4.283351304e-07
4.362531657e-07
4.439356738e-07
4.515357079e-07
4.559138023e-07
4.941259814e-07
8.989639781e-09
1.377271224e-06
3.349364152e-06
1.275575247e-05
1.321464503e-05
3.902410689e-08
7.746087665e-08
1.054223431e-07
1.286205247e-07
1.489118688e-07
1.671850284e-07
1.839497601e-07
1.995314448e-07
2.141532565e-07
2.279764874e-07
2.411224968e-07
2.536856075e-07
2.65741146e-07
2.77350695e-07
2.885656556e-07
2.994297325e-07
3.099806982e-07
3.202516547e-07
3.302719218e-07
3.400676355e-07
3.496620852e-07
3.590757557e-07
3.683260591e-07
3.774267501e-07
3.863872231e-07
3.952117885e-07
4.038987721e-07
4.124393899e-07
4.208168404e-07
4.290061715e-07
4.369751833e-07
4.446812164e-07
4.521981524e-07
4.580303924e-07
4.727994057e-07
3.860806993e-07
1.602411692e-06
3.654365934e-06
1.300649119e-05
1.354052699e-05
3.902491888e-08
7.74625193e-08
1.054237462e-07
1.286220683e-07
1.489138038e-07
1.671876223e-07
1.839533196e-07
1.995363324e-07
2.141599103e-07
2.279854481e-07
2.411344422e-07
2.53701397e-07
2.657618778e-07
2.773777769e-07
2.886008927e-07
2.994754318e-07
3.100397931e-07
3.203278458e-07
3.303698285e-07
3.401929454e-07
3.49821708e-07
3.5927797e-07
3.685805746e-07
3.777446718e-07
3.867806789e-07
3.956929452e-07
4.044784029e-07
4.131251075e-07
4.216107314e-07
4.299017772e-07
4.379539638e-07
4.457091189e-07
4.532418024e-07
4.583157309e-07
4.842952675e-07
3.152357171e-07
1.380133462e-06
3.937209648e-06
1.32505859e-05
1.386850042e-05
3.902604065e-08
7.746479541e-08
1.054261299e-07
1.286249512e-07
1.489174644e-07
1.671923686e-07
1.839595122e-07
1.995444032e-07
2.141703867e-07
2.279989842e-07
2.411518602e-07
2.537237415e-07
2.65790484e-07
2.774143583e-07
2.886476487e-07
2.99535181e-07
3.101161324e-07
3.20425338e-07
3.30494219e-07
3.403513961e-07
3.500230246e-07
3.595328509e-07
3.689018412e-07
3.781472433e-07
3.872812985e-07
3.963094765e-07
4.05228216e-07
4.14022624e-07
4.226642565e-07
4.311095465e-07
4.392995134e-07
4.471584587e-07
4.547282856e-07
4.594881987e-07
4.928299588e-07
2.819500798e-07
1.696160532e-06
4.320315434e-06
1.348867682e-05
1.419962169e-05
3.90274481e-08
7.746765278e-08
1.054294277e-07
1.286290967e-07
1.48922769e-07
1.671991877e-07
1.839682691e-07
1.995556111e-07
2.141846775e-07
2.280171465e-07
2.411748896e-07
2.537529063e-07
2.658274097e-07
2.774611348e-07
2.887069661e-07
2.996104979e-07
3.102118819e-07
3.205471763e-07
3.306493243e-07
3.40548821e-07
3.502740794e-07
3.598514857e-07
3.693050745e-07
3.786554911e-07
3.879181822e-07
3.971012129e-07
4.062022729e-07
4.152049211e-07
4.240749909e-07
4.32757843e-07
4.411775119e-07
4.492385908e-07
4.569075753e-07
4.62901942e-07
4.878442123e-07
1.705118634e-07
6.763489214e-07
4.710307703e-06
1.371449997e-05
1.453323381e-05
3.902910927e-08
7.74710227e-08
1.054335485e-07
1.286343956e-07
1.489295955e-07
1.672079511e-07
1.839794637e-07
1.99569843e-07
2.142026991e-07
2.280399035e-07
2.412035828e-07
2.537890723e-07
2.658730256e-07
2.775187523e-07
2.887798823e-07
2.997029703e-07
3.10329395e-07
3.206967712e-07
3.308400105e-07
3.407920851e-07
3.505844996e-07
3.602474119e-07
3.698093264e-07
3.792961468e-07
3.887290259e-07
3.981213376e-07
4.07475041e-07
4.167754161e-07
4.259851486e-07
4.350394175e-07
4.438445431e-07
4.522883449e-07
4.601987994e-07
4.697557677e-07
4.487965707e-07
5.775697744e-07
3.216067818e-07
5.058832908e-06
1.392576407e-05
1.486809832e-05
3.903098366e-08
7.747481866e-08
1.054383749e-07
1.286407034e-07
1.489377777e-07
1.67218476e-07
1.839929044e-07
1.995869087e-07
2.142242788e-07
2.280671234e-07
2.412378829e-07
2.538323072e-07
2.659275953e-07
2.775877709e-07
2.888673949e-07
2.998142289e-07
3.104712032e-07
3.208779202e-07
3.310718439e-07
3.410892306e-07
3.50965807e-07
3.607371144e-07
3.704383308e-07
3.801034261e-07
3.897631674e-07
3.99441374e-07
4.091501846e-07
4.188836055e-07
4.28608769e-07
4.382579717e-07
4.4772669e-07
4.568944387e-07
4.656477613e-07