/*--------------------------------*- C++ -*----------------------------------*\
| =========                 |                                                 |
| \\      /  F ield         | OpenFOAM: The Open Source CFD Toolbox           |
|  \\    /   O peration     | Version:  v1912                                 |
|   \\  /    A nd           | Website:  www.openfoam.com                      |
|    \\/     M anipulation  |                                                 |
\*---------------------------------------------------------------------------*/
FoamFile
{
    version     2.0;
    format      ascii;
    class       volScalarField;
    location    "0.5";
    object      iDmdt.gasAndLiquid;
}
// * * * * * * * * * * * * * * * * * * * * * * * * * * * * * * * * * * * * * //

dimensions      [1 -3 -1 0 0 0 0];


internalField   nonuniform List<scalar> 
4800
(
4.114555455e-188
2.136428271e-188
1.789576778e-188
1.839937878e-188
2.006676048e-188
2.565787618e-188
3.571994015e-188
5.389707536e-188
8.765066956e-188
1.527499777e-187
2.830437422e-187
5.521377769e-187
5.892451893e-187
1.445285328e-180
1.595459091e-179
8.130621198e-176
3.93587113e-172
1.738566171e-168
6.972645775e-165
2.518505807e-161
7.980838613e-158
2.156271629e-154
3.262453119e-151
1.640297339e-148
6.622109878e-153
7.059579198e-137
2.10310231e-138
6.076352746e-141
4.554768913e-106
4.980619922e-105
7.104219339e-119
3.155461156e-78
2.821912047e-77
2.865121118e-77
2.518759319e-62
6.469316398e-79
-3.835840693e-50
4.111496059e-65
-0.0005617886033
0.1028285914
3.935557948e-185
2.017187502e-185
1.679053594e-185
1.713500067e-185
1.856278162e-185
2.350786234e-185
3.237158938e-185
4.824075497e-185
7.73568107e-185
1.327491514e-184
2.419010764e-184
4.636626869e-184
1.909381761e-184
1.144795922e-177
1.913698364e-177
7.067192278e-174
3.166929353e-170
1.293006445e-166
4.789845495e-163
1.595131693e-159
4.606783513e-156
1.097555285e-152
8.532659028e-150
4.398653736e-147
7.576228784e-153
1.177340786e-132
5.839265634e-134
1.454829671e-137
2.365130477e-124
1.884384939e-100
0
4.743238819e-76
2.049940972e-93
1.489929895e-61
5.989558948e-60
0
5.196062243e-48
1.543118437e-66
-0.001158240199
0.1977120077
1.540268331e-182
7.827104314e-183
6.475572358e-183
6.559400839e-183
7.058488274e-183
8.852716026e-183
1.205738199e-182
1.77441522e-182
2.805327939e-182
4.739846549e-182
8.492554068e-182
1.599321431e-181
5.343820864e-182
3.703509066e-175
2.167941637e-175
2.851683938e-172
1.144317756e-168
4.144763873e-165
1.355581085e-161
3.993446697e-158
1.01938474e-154
2.14350966e-151
4.921279117e-149
5.038228191e-146
6.089165491e-145
4.819392527e-131
4.00498778e-131
7.332862408e-132
3.996352818e-146
2.876948131e-96
5.292648924e-115
1.704421184e-74
9.801075386e-94
4.736635288e-58
2.691330291e-57
6.668736742e-76
1.822867822e-45
1.20857121e-64
-0.002166113937
0.2791789265
3.914055168e-180
1.974734054e-180
1.62413176e-180
1.63291443e-180
1.745421826e-180
2.167834543e-180
2.920099337e-180
4.24342549e-180
6.61379265e-180
1.100106773e-179
1.937903154e-179
3.585239777e-179
1.186597977e-179
7.730788911e-173
3.37947162e-173
8.704718142e-171
3.106151796e-167
9.733878039e-164
2.669789403e-160
6.436329526e-157
1.315534901e-153
2.366757854e-150
2.058818631e-151
3.909237928e-142
4.298522098e-143
2.318515571e-148
3.373579226e-126
7.049048916e-127
4.448041777e-146
2.39102583e-93
0
1.458213448e-73
1.584800272e-93
1.013238499e-55
2.055566864e-55
8.496856359e-74
5.993980037e-44
1.863379714e-66
-0.003406182714
0.3429220169
7.227723767e-178
3.622624926e-178
2.962168998e-178
2.955906709e-178
3.138447673e-178
3.859807316e-178
5.141625827e-178
7.377341669e-178
1.133447393e-177
1.85586088e-177
3.213819792e-177
5.84044981e-177
2.004217497e-177
1.163651788e-170
4.795741881e-171
2.179170939e-169
7.119426785e-166
1.991945706e-162
4.63336635e-159
8.717266581e-156
1.153739743e-152
1.415684173e-149
1.857738547e-151
2.264926874e-139
4.239297677e-140
0
2.223846644e-121
3.038728334e-122
0
5.034778475e-91
0
5.142029633e-73
0
4.451120825e-54
3.969747141e-54
0
4.784703909e-43
7.502900238e-61
-0.004379916256
0.3873083347
1.036197773e-175
5.160966179e-176
4.195682337e-176
4.155246317e-176
4.38229685e-176
5.33627876e-176
7.029142236e-176
9.957327072e-176
1.507892085e-175
2.430107774e-175
4.136475816e-175
7.383012678e-175
2.676191538e-175
1.348005136e-168
5.488685667e-169
4.435658556e-168
1.34045504e-164
3.544053269e-161
7.589223181e-158
1.233312089e-154
9.998389633e-152
3.499430857e-149
1.844199326e-151
8.959829443e-138
2.392431065e-138
0
3.337574216e-118
4.102454363e-119
0
5.242863086e-88
0
8.909676592e-73
0
4.956289836e-53
2.459251915e-53
0
6.194383913e-43
4.004532207e-66
-0.005105721181
0.4180080306
1.201489093e-173
5.947430032e-174
4.807054445e-174
4.724479862e-174
4.949141287e-174
5.966377085e-174
7.770808445e-174
1.086686229e-173
1.62185191e-173
2.572300267e-173
4.303243882e-173
7.542280494e-173
2.92392396e-173
1.25072276e-166
5.091447373e-167
7.978670061e-167
1.937383787e-163
4.997327589e-160
1.044350938e-156
1.64918089e-153
1.099377645e-150
5.03495502e-150
1.855735784e-151
4.313514289e-137
4.417480226e-135
0
1.756379836e-116
5.222047332e-117
2.275334338e-136
1.802672681e-85
2.984935344e-104
1.07230359e-72
0
8.832633433e-53
3.69035754e-53
7.46493954e-78
6.333102133e-43
3.995362247e-64
-0.005805540065
0.4395201501
1.158565386e-171
5.699843896e-172
4.580067821e-172
4.466733658e-172
4.647550262e-172
5.546320571e-172
7.141865332e-172
9.858220366e-172
1.449878354e-171
2.262719457e-171
3.719646004e-171
6.40057243e-171
2.67927385e-171
9.545906277e-165
3.909529393e-165
1.979501555e-165
2.065092694e-162
5.254886058e-159
1.093190895e-155
1.743679705e-152
1.081257022e-149
2.602858934e-150
4.675770244e-146
4.326622394e-149
1.569118796e-131
0
5.448066541e-116
6.076604496e-113
3.061896956e-132
1.044493503e-83
2.146528278e-102
1.775009172e-72
5.489626673e-92
8.778380127e-53
2.943157297e-53
0
6.379561792e-43
1.196013736e-62
-0.006559518891
0.4548861665
9.47814475e-170
4.634306278e-170
3.701924715e-170
3.582187953e-170
3.701914062e-170
4.372813199e-170
5.566391451e-170
7.583216502e-170
1.098875789e-169
1.687156954e-169
2.724789601e-169
4.601992117e-169
2.095180464e-169
6.105443079e-163
2.531157253e-163
9.040615625e-164
1.597265918e-161
4.038111578e-158
8.465773547e-155
1.385018951e-151
7.834197151e-149
1.06302006e-149
5.017731025e-144
9.340708463e-158
4.40881723e-129
2.167114504e-129
0
2.276111679e-108
2.386424307e-127
1.880646221e-82
3.74188545e-101
5.278907627e-72
5.182508106e-91
8.711982336e-53
1.546358279e-53
3.121530029e-72
6.416219252e-43
0
-0.007269923164
0.466251679
6.677199215e-168
3.244501977e-168
2.576305844e-168
2.473312386e-168
2.538545724e-168
2.967723179e-168
3.734130423e-168
5.019891328e-168
7.165928721e-168
1.082148832e-167
1.716564251e-167
2.844660206e-167
1.415681301e-167
3.315311292e-161
1.401341554e-161
4.834725775e-162
8.948943152e-161
2.247223182e-157
4.834086628e-154
8.266080911e-151
4.139082874e-148
1.520201879e-149
2.081005567e-142
3.025885253e-156
1.771813862e-127
9.402310445e-128
0
6.831399986e-104
0
1.166198284e-81
0
6.354547135e-72
0
8.649180894e-53
2.087308289e-54
3.153270795e-64
5.420533943e-43
1.136079064e-55
-0.007911728022
0.4748862921
4.097072538e-166
1.978294331e-166
1.56142175e-166
1.487028526e-166
1.51577181e-166
1.75355222e-166
2.180578012e-166
2.892117345e-166
4.066088907e-166
6.03775203e-166
9.403942186e-166
1.52854137e-165
8.339667334e-166
1.542116653e-159
6.703988441e-160
2.360538995e-160
4.124005952e-160
9.002759897e-157
2.02836998e-153
3.688707331e-150
1.590207555e-147
1.716301134e-149
2.185805502e-141
9.10887648e-158
1.805018521e-126
9.231693416e-127
8.891437264e-146
4.796156222e-100
0
2.103000247e-81
0
6.31036328e-72
2.446610194e-91
7.886092322e-53
2.87454375e-72
8.228833746e-46
2.604476337e-43
0
-0.008673890317
0.4818758324
2.20901353e-164
1.059877283e-164
8.314548183e-165
7.854301336e-165
7.950638863e-165
9.100427358e-165
1.118183449e-164
1.462801921e-164
2.024893947e-164
2.955527119e-164
4.518311195e-164
7.200507978e-164
4.311410604e-164
6.178972689e-158
2.792530901e-158
1.01379278e-158
3.729216415e-159
2.680688485e-156
6.260925756e-153
1.210928681e-149
4.655084911e-147
1.866588081e-149
8.446792704e-141
2.983273485e-156
6.665023901e-126
3.475590531e-126
4.062619576e-145
2.837242334e-97
1.321692452e-116
2.092933265e-81
0
6.265637235e-72
3.642160607e-91
4.748599244e-53
0
1.038146173e-45
1.02186039e-44
0
-0.009368441048
0.4877742426
1.053844855e-162
5.024074291e-163
3.917069693e-163
3.669783576e-163
3.688653764e-163
4.176445541e-163
5.069160633e-163
6.538722428e-163
8.908594596e-163
1.277625411e-162
1.916385387e-162
2.992998039e-162
1.965407256e-162
2.138130485e-156
1.018436985e-156
3.826082732e-157
9.829074626e-158
7.265436429e-156
1.417112838e-152
2.776659877e-149
1.156903806e-146
2.147791983e-149
1.18606236e-140
8.901416615e-158
8.676229244e-126
6.202179395e-126
5.614950975e-145
2.412961888e-95
0
2.077320762e-81
5.675801888e-102
5.303049647e-72
0
1.379521809e-53
2.103675107e-73
5.043109179e-46
0
3.055452495e-06
-0.01003951624
0.4928750249
4.472693589e-161
2.11859366e-161
1.641439526e-161
1.524861513e-161
1.521642197e-161
1.703726762e-161
2.041957466e-161
2.596028558e-161
3.479721541e-161
4.901355945e-161
7.210523999e-161
1.103193016e-160
7.92721774e-161
6.386996217e-155
3.26471448e-155
1.270248408e-155
2.97809063e-156
3.361771987e-155
2.370223576e-152
3.816842396e-149
1.483271302e-146
2.619400283e-149
1.1777933e-140
2.942295163e-156
8.615245603e-126
6.847971223e-126
0
4.64734832e-94
0
1.992238667e-81
1.003131973e-100
2.573318658e-72
1.208617381e-91
1.387084468e-54
0
6.207529056e-47
6.104299155e-66
1.676074483e-05
-0.01067682929
0.4973556038
1.695910422e-159
7.980396014e-160
6.143043788e-160
5.657069701e-160
5.602805644e-160
6.201097745e-160
7.335536457e-160
9.187470652e-160
1.211046704e-159
1.674693453e-159
2.415522805e-159
3.619087825e-159
2.835195721e-159
1.641109477e-153
9.220512897e-154
3.710010106e-154
8.202464045e-155
3.284676915e-154
5.693577807e-152
2.024258456e-149
1.083665501e-146
2.647789096e-147
1.007606203e-140
3.006140459e-146
7.917892068e-126
5.977745708e-126
3.672479497e-145
2.627699365e-93
5.953381924e-112
1.431963203e-81
0
4.365987358e-73
0
3.224335086e-56
0
1.273248115e-48
0
3.875770235e-05
-0.0112825819
0.5013388957
5.762700746e-158
2.693114634e-158
2.058926116e-158
1.878770176e-158
1.846061286e-158
2.018713581e-158
2.355747116e-158
2.905284851e-158
3.764584701e-158
5.109242529e-158
7.223474702e-158
1.059473065e-157
9.001238854e-158
3.600260679e-152
2.293737213e-152
9.531344468e-153
2.008229421e-153
3.725871954e-153
4.253666467e-151
9.503653492e-150
4.714764541e-147
5.209723171e-144
2.73139074e-156
5.235550085e-128
5.242074561e-126
3.657484614e-126
1.125237742e-145
5.274647609e-93
0
6.35694597e-82
4.564630121e-83
1.819801391e-92
7.891266347e-65
1.866526228e-76
1.269684362e-54
3.126094235e-51
5.704790087e-70
6.397952196e-05
-0.01185201067
0.5049249424
1.758325806e-156
8.155734666e-157
6.189244691e-157
5.593269454e-157
5.449869754e-157
5.885205207e-157
6.771662349e-157
8.220339206e-157
1.046828568e-156
1.394114215e-156
1.931577035e-156
2.772225875e-156
2.53626808e-156
6.660089786e-151
4.996917788e-151
2.154299924e-151
4.345967017e-152
4.057057621e-152
3.209989625e-150
3.270644224e-149
1.8651449e-147
1.314025485e-143
2.846612852e-163
5.528368136e-125
3.953777166e-125
7.243914559e-126
0
5.270603501e-93
4.108462103e-112
2.302930716e-82
8.542882293e-83
2.577916863e-101
7.873735685e-65
0
1.975801932e-54
2.351511857e-54
1.835172071e-73
8.923278745e-05
-0.01238095477
0.5082135914
4.820815508e-155
2.217030236e-155
1.668888191e-155
1.492805386e-155
1.441695043e-155
1.536846313e-155
1.743061591e-155
2.082456554e-155
2.606127634e-155
3.405283427e-155
4.622206187e-155
6.486583333e-155
6.331736615e-155
1.018493929e-149
9.384744922e-150
4.274663857e-150
8.26630165e-151
4.339937996e-151
2.045166282e-149
1.185035588e-148
4.439366746e-147
1.537947622e-143
4.639872821e-163
5.77661241e-123
3.786884927e-123
4.900811983e-124
0
5.232798068e-93
6.29433719e-112
1.359300031e-82
9.492095805e-83
1.150018529e-101
5.242803371e-65
0
1.583778815e-54
4.705865987e-55
2.478961268e-77
0.0001131011386
-0.01288592479
0.5112791041
1.186567536e-153
5.403147835e-154
4.031690375e-154
3.568097507e-154
3.414814766e-154
3.59322203e-154
4.017262749e-154
4.724011353e-154
5.809984522e-154
7.446187229e-154
9.893511476e-154
1.355650443e-153
1.395601971e-153
1.246835834e-148
1.478257463e-148
7.337444374e-149
1.365208304e-149
4.611307381e-150
1.082463224e-148
3.041048061e-148
5.102850957e-146
1.545809137e-143
3.025190959e-163
1.230564777e-121
8.289164882e-122
1.11100165e-122
0
4.54647278e-93
0
9.518423743e-83
6.936036957e-83
1.797800432e-101
1.138493675e-65
8.519409716e-85
4.436558609e-55
9.022612041e-56
1.25097214e-74
0.0001347815209
-0.0133624308
0.514174726
2.614523356e-152
1.177449731e-152
8.706982402e-153
7.62504751e-153
7.233940571e-153
7.516970717e-153
8.287185153e-153
9.59317098e-153
1.159074585e-152
1.455421246e-152
1.88924408e-152
2.521606383e-152
2.701291578e-152
1.156303986e-147
1.920593189e-147
1.038391558e-147
1.901807856e-148
4.734522224e-149
4.674216258e-148
4.132148723e-148
2.57297037e-143
1.701061981e-143
0
8.563833383e-121
5.929288428e-121
8.356390562e-122
4.898999211e-141
2.493889756e-93
0
5.291788801e-83
2.579332148e-83
2.302724861e-102
4.881564631e-67
4.174841444e-86
2.507011789e-56
5.199821099e-57
3.653589156e-80
0.0001536954925
-0.01378606355
0.5169601918
5.133347077e-151
2.286700433e-151
1.67725163e-151
1.454883818e-151
1.369547541e-151
1.406384285e-151
1.529119936e-151
1.741299361e-151
2.063245118e-151
2.531213273e-151
3.198885747e-151
4.146710469e-151
4.562130476e-151
7.33950875e-147
2.449878451e-146
1.091410139e-146
2.125837187e-147
4.43996099e-148
1.618025965e-147
1.993272975e-153
2.479065883e-138
1.104983066e-139
0
2.927161588e-120
1.9669868e-120
2.745498826e-121
1.962928495e-140
6.416023286e-94
4.936530278e-113
1.706646906e-83
2.338868155e-84
0
2.683066353e-69
1.735358738e-90
1.82154381e-58
4.737002637e-59
0
0.0001691195963
-0.01415509067
0.519686952
8.933647593e-150
3.948951573e-150
2.879836581e-150
2.478325648e-150
2.316808264e-150
2.350584376e-150
2.516435785e-150
2.810328122e-150
3.251215997e-150
3.877295757e-150
4.750008645e-150
5.974527967e-150
6.694713743e-150
2.468002962e-146
8.316366194e-145
8.066044208e-146
1.951910297e-146
3.660855319e-147
4.541722502e-147
5.627192864e-158
2.380518499e-133
7.706267365e-135
0
7.76397406e-120
4.194167939e-120
4.555265006e-121
0
5.654611547e-95
3.171945462e-114
2.382854263e-84
1.321724929e-101
8.568929833e-74
1.351998656e-72
2.811055505e-97
1.17707484e-61
4.329496729e-62
0
0.0001807190691
-0.01447135618
0.5223918409
1.375005094e-148
6.072950859e-149
4.414079295e-149
3.769245511e-149
3.492980064e-149
3.488033234e-149
3.655688285e-149
3.975311373e-149
4.45659645e-149
5.13699528e-149
6.097357708e-149
7.503473099e-149
8.579349793e-149
3.684540672e-150
8.054320106e-140
1.129507148e-141
3.387059811e-145
3.203712063e-146
1.18964571e-146
1.860324138e-162
2.195442625e-128
4.975407866e-130
0
2.352056145e-119
8.699002703e-120
4.147413662e-121
0
1.192451556e-96
6.734307056e-116
3.072649491e-83
6.16513222e-102
6.564174977e-74
1.697791827e-78
6.744421101e-69
5.521729888e-66
2.914206402e-66
0
0.0001890268844
-0.01474238183
0.5251047791
1.884418429e-147
8.350555865e-148
6.027533328e-148
5.074854081e-148
4.622378143e-148
4.495801614e-148
4.560329732e-148
4.776863825e-148
5.15351445e-148
5.757802957e-148
6.74821771e-148
8.364715879e-148
9.767421464e-148
1.620786726e-155
8.075318071e-135
6.713858127e-137
8.678689281e-141
8.956013496e-145
4.980708839e-146
7.012211663e-164
1.846538595e-123
2.66794833e-125
1.155019019e-144
5.169716798e-119
2.447662783e-119
0
1.27480868e-102
4.21597562e-99
6.820249412e-119
2.89893807e-80
0
1.431828652e-74
2.139743931e-77
6.791737119e-69
1.960503525e-69
1.506745587e-70
1.838405547e-90
0.0001976973273
-0.01493899488
0.5278798647
2.33006951e-146
1.014637713e-146
7.132449276e-147
5.816690249e-147
5.116870747e-147
4.76596339e-147
4.614660393e-147
4.632022302e-147
4.877605612e-147
5.540978812e-147
6.886448155e-147
8.806634133e-147
9.808306507e-147
1.487375168e-155
8.618493782e-131
6.116677528e-133
8.883494765e-137
1.260898095e-140
3.154517448e-144
0
9.314432997e-120
1.252913758e-121
0
6.34982931e-119
1.554431474e-118
0
3.869972942e-102
6.656388207e-102
6.125761431e-119
1.140744264e-78
1.455719399e-79
5.153054981e-76
1.671374404e-78
1.771877535e-69
4.12708084e-67
7.499409398e-68
0
0.0002170594533
-0.01507730097
0.5307530385
2.537037816e-145
1.013952792e-145
6.695313646e-146
5.155770537e-146
4.290430282e-146
3.783293239e-146
3.537312492e-146
3.607865057e-146
4.230442802e-146
5.815114157e-146
8.156874837e-146
9.231659724e-146
7.978788243e-146
1.562745819e-155
2.025759116e-128
2.805596002e-130
5.320484297e-133
3.024330728e-136
9.215651861e-140
4.874457989e-159
1.297171717e-117
3.743456956e-119
9.365243359e-122
4.604335548e-119
5.515742723e-117
4.393234826e-138
2.200004056e-102
1.644538016e-103
5.707302773e-110
2.943090718e-78
1.447477954e-74
6.713637063e-76
3.738347053e-76
0
1.862911833e-62
3.159433092e-63
0
0.0002396308139
-0.01516810574
0.5337354197
2.227114205e-144
7.632513262e-145
4.646084918e-145
3.357563031e-145
2.682217096e-145
2.496568865e-145
2.892859369e-145
4.343268734e-145
8.273029018e-145
1.88693012e-144
4.91614596e-144
1.422504064e-143
4.49402163e-143
7.134104256e-154
1.950207168e-127
8.051506439e-127
2.545876384e-128
1.542206572e-131
3.017355568e-135
0
9.508521441e-117
2.754020895e-115
5.14335927e-117
7.25651264e-136
1.025663533e-112
2.032110987e-132
3.671984377e-103
2.085696814e-122
2.707907224e-91
4.814510906e-96
1.697265456e-70
3.405721752e-72
2.274581907e-72
0
4.145233968e-58
5.087744027e-59
3.764571814e-78
0.0002621950426
-0.01522765521
0.5368328279
1.352147295e-141
1.427819758e-141
1.789226837e-141
2.434985628e-141
3.621147049e-141
5.981389198e-141
1.088377471e-140
2.169601736e-140
4.738385733e-140
1.133014243e-139
2.964863702e-139
8.477468434e-139
2.646086903e-138
7.831344161e-138
4.799962481e-147
3.754415934e-122
9.794815022e-124
4.321800117e-127
7.313005037e-131
7.947247726e-131
0
7.137148256e-111
9.561204374e-113
4.551212047e-132
1.12360079e-109
0
1.282686822e-103
2.479740578e-122
8.264419856e-87
1.413809818e-99
4.554208466e-68
1.494950864e-69
1.855564542e-68
0
4.275328929e-55
4.126166642e-56
2.544828129e-75
0.0002843793818
-0.01526098914
0.5400528303
8.393267679e-137
8.845927417e-137
1.104244902e-136
1.495190667e-136
2.210574187e-136
3.623413681e-136
6.5352436e-136
1.289825775e-135
2.786119737e-135
6.582851324e-135
1.700791747e-134
4.798894202e-134
1.476634274e-133
4.987685347e-133
4.935677211e-153
1.594479479e-117
3.083040356e-119
8.200907835e-123
1.29998177e-126
2.605351162e-126
5.533558616e-141
5.471538744e-108
1.011920739e-109
2.75055763e-127
9.194338771e-108
0
1.794881289e-99
0
2.13196292e-82
4.7938395e-96
4.600862685e-67
5.302738347e-67
1.600548141e-65
9.130707739e-85
3.091620054e-53
2.953530621e-54
1.583426525e-73
0.0003055935427
-0.01528115793
0.5433962993
4.976046349e-132
5.235050756e-132
6.509044193e-132
8.767405668e-132
1.288235334e-131
2.094739074e-131
3.743493932e-131
7.311893541e-131
1.561398096e-130
3.643503432e-130
9.289528002e-130
2.585072537e-129
7.842641414e-129
2.615340963e-128
8.29889932e-148
5.464353061e-114
7.739230154e-116
1.904585964e-119
1.491117727e-122
5.425045387e-122
1.727493393e-142
1.779632095e-106
5.864926472e-107
6.972775645e-109
9.911405873e-107
0
3.786992676e-96
6.245963709e-115
1.687587332e-78
1.019716222e-79
0
2.397001235e-62
4.502068546e-64
9.985520704e-73
2.662132665e-52
4.921837871e-53
0
0.0003248429318
-0.01528237515
0.5468631722
2.822123666e-127
2.963791203e-127
3.669871769e-127
4.916320109e-127
7.176744728e-127
1.157278585e-126
2.048383388e-126
3.957718911e-126
8.350652476e-126
1.923430475e-125
4.836521393e-125
1.326586088e-124
3.965646428e-124
1.300041734e-123
2.025913322e-143
9.790047246e-112
1.621147706e-113
1.181031281e-116
2.404787648e-118
9.73433154e-118
0
3.91539323e-106
2.636113171e-102
2.93701796e-104
2.587428385e-106
3.928813784e-113
9.464684632e-94
1.491028067e-113
1.125970524e-75
2.548220086e-76
1.564750531e-95
1.094689946e-58
2.862838276e-77
2.007472216e-54
4.888364596e-52
3.776167779e-50
3.479053145e-69
0.0003419178333
-0.01528569427
0.550442785
1.533297525e-122
1.60746962e-122
1.981887882e-122
2.640016156e-122
3.82731664e-122
6.1181517e-122
1.072075919e-121
2.047945581e-121
4.267174112e-121
9.695764527e-121
2.402919443e-120
6.491881421e-120
1.910882113e-119
6.154820075e-119
0
1.605016854e-110
1.181284126e-111
9.726414346e-113
3.860690956e-114
1.536621625e-113
1.215049987e-113
7.302868356e-125
6.598577262e-99
1.018271361e-100
2.543123577e-106
1.580822692e-94
4.263829885e-92
0
9.311764716e-74
2.451048172e-74
0
2.261592256e-56
3.651437002e-75
6.422081061e-52
1.299169254e-52
7.470399016e-46
0
0.0003553214761
-0.01529213375
0.5541151695
7.991794365e-118
8.363899897e-118
1.026585319e-117
1.359416529e-117
1.956443459e-117
3.099086199e-117
5.373523856e-117
1.014307033e-116
2.085787608e-116
4.672047615e-116
1.140395596e-115
3.032435e-115
8.782175865e-115
2.777448172e-114
1.814480057e-114
5.51569039e-110
3.1430032e-108
1.117094291e-108
5.2372085e-110
2.145059776e-109
2.677311797e-109
0
6.800934718e-97
1.368606093e-97
2.522351223e-106
3.366872784e-92
5.263215268e-91
0
1.436643909e-72
3.785964302e-73
0
3.467670647e-55
6.426947221e-71
1.950925433e-50
1.289914312e-52
1.796541002e-42
2.215121585e-61
0.0003633663041
-0.01533226396
0.5578157445
4.001880196e-113
4.180680031e-113
5.107179629e-113
6.721182687e-113
9.598467076e-113
1.505975983e-112
2.582458125e-112
4.813911539e-112
9.763050859e-112
2.154275099e-111
5.174893245e-111
1.353274651e-110
3.852761547e-110
1.195587109e-109
4.048962082e-109
1.0848854e-108
1.954149301e-105
6.837123952e-105
5.794936828e-106
2.814454186e-105
5.673336098e-105
0
4.724981366e-96
1.471809072e-94
2.501044113e-106
9.384575999e-91
2.512487943e-90
7.741484676e-110
5.999478165e-72
1.69241627e-72
0
7.259636433e-55
4.711625761e-52
1.417104129e-49
1.277627682e-52
4.723375412e-40
2.546965358e-62
0.0003679353596
-0.01541808383
0.5614434246
1.927615461e-108
2.010134342e-108
2.443484171e-108
3.194808511e-108
4.525256905e-108
7.029116752e-108
1.191394612e-107
2.191746848e-107
4.38074149e-107
9.514733526e-107
2.247390867e-106
5.774606872e-106
1.6146383e-105
4.919871365e-105
1.635304085e-104
5.879151345e-104
6.545132581e-103
1.173809763e-101
6.845320928e-102
4.285779598e-101
1.519404733e-100
1.351728141e-100
2.343253556e-96
2.150301869e-92
9.373813524e-94
7.109036014e-90
6.328391555e-90
3.448891227e-109
8.545791979e-72
3.327904504e-72
1.060808192e-73
0
3.115025003e-50
4.126178365e-49
1.268306278e-52
1.965215573e-38
4.760730869e-60
0.0004267239013
-0.01558278466
0.5649644836
8.942389237e-104
9.308623262e-104
1.125712518e-103
1.461817334e-103
2.05270482e-103
3.155020832e-103
5.282357225e-103
9.58350529e-103
1.886284685e-102
4.029145431e-102
9.349229635e-102
2.358053254e-101
6.468810231e-101
1.933347009e-100
6.303767622e-100
2.230264765e-99
8.608942478e-99
4.190213724e-98
1.767958333e-97
9.679696497e-97
4.768418613e-96
2.842883407e-95
2.077174699e-95
8.487303184e-91
1.35922433e-90
3.005171346e-89
2.13020687e-89
1.956008427e-108
8.474756611e-72
4.023064517e-72
2.414537548e-73
5.059034275e-93
1.646337466e-49
9.30236383e-49
1.256010606e-52
1.885988577e-37
6.439640325e-58
0.0004279771818
-0.01573110634
0.56841984
4.000413694e-99
4.156838226e-99
4.999974159e-99
6.446409194e-99
8.969599498e-99
1.363421202e-98
2.253406023e-98
4.028740737e-98
7.802086448e-98
1.637462718e-97
3.728884538e-97
9.221967662e-97
2.47925424e-96
7.259522935e-96
2.319152854e-95
8.042317018e-95
3.033535383e-94
1.258805525e-93
5.735493831e-93
2.887554442e-92
1.547301861e-91
9.317132133e-91
6.406734689e-90
7.253667907e-89
6.949173563e-88
1.084572963e-86
3.84145997e-85
3.186195104e-104
8.131279803e-72
4.459990806e-72
3.018307512e-73
0
1.084165503e-49
3.561326561e-46
1.246625805e-52
5.665773023e-37
3.619041042e-59
0.0004215419144
-0.01595309262
0.5717945884
1.72801726e-94
1.792296008e-94
2.143716782e-94
2.743114758e-94
3.780063518e-94
5.679185965e-94
9.259222387e-94
1.629997769e-93
3.103085593e-93
6.392598574e-93
1.427128644e-92
3.456824362e-92
9.09642742e-92
2.606130386e-91
8.146687797e-91
2.765470179e-90
1.022106636e-89
4.156572349e-89
1.852468107e-88
9.058380333e-88
4.862222921e-87
2.916660284e-86
2.015307528e-85
1.708722766e-84
2.04091717e-83
4.116619444e-82
1.702703247e-80
0
4.638854669e-72
2.71638622e-71
0
1.291955099e-55
0
1.378585982e-43
1.234320075e-52
6.363132235e-37
3.63492333e-57
0.0004078120869
-0.01624370475
0.5750382195
7.216874874e-90
7.47103429e-90
8.883208262e-90
1.127718548e-89
1.538236397e-89
2.282827055e-89
3.668739033e-89
6.353880182e-89
1.18793134e-88
2.399580145e-88
5.245626234e-88
1.242921225e-87
3.197135807e-87
8.95004261e-87
2.73374231e-86
9.070856192e-86
3.280454314e-85
1.306794542e-84
5.712931995e-84
2.743580069e-83
1.454752693e-82
8.66251927e-82
6.013567314e-81
5.274490159e-80
6.806848454e-79
1.553060065e-77
7.316815548e-76
7.955453099e-74
1.344709641e-71
1.709185703e-69
0
5.020103003e-55
0
8.050611724e-42
4.195079118e-40
6.287796903e-37
8.589307591e-58
0.0003846804061
-0.01660349799
0.5781092286
2.917931416e-85
3.014633158e-85
3.562247759e-85
4.484601056e-85
6.051590453e-85
8.865412578e-85
1.403315266e-84
2.388864745e-84
4.381702239e-84
8.668676239e-84
1.85333161e-83
4.289951496e-83
1.077145875e-82
2.941885328e-82
8.766792017e-82
2.839012301e-81
1.003059811e-80
3.908267216e-80
1.674145726e-79
7.8976679e-79
4.129071597e-78
2.440682536e-77
1.709680103e-76
1.567401407e-75
2.21294234e-74
5.770783825e-73
3.149745573e-71
3.831351125e-69
6.460742142e-67
3.962034308e-65
1.967355906e-75
1.968680445e-53
8.239702435e-73
1.12586043e-40
6.34436667e-39
6.212305657e-37
2.193712099e-57
0.0003523448319
-0.01703324597
0.5809661936
1.14366701e-80
1.179058132e-80
1.384160602e-80
1.727258508e-80
2.304474268e-80
3.330284223e-80
5.187857791e-80
8.67201908e-80
1.558823264e-79
3.0168006e-79
6.299553388e-79
1.422458743e-78
3.480949725e-78
9.26039734e-78
2.687836422e-77
8.480767259e-77
2.92241145e-76
1.111918653e-75
4.659801487e-75
2.156737263e-74
1.110886506e-73
6.524656257e-73
4.639459336e-72
4.497371758e-71
7.036986772e-70
2.11188465e-68
1.330750963e-66
1.780592322e-64
2.993018218e-62
1.886787853e-60
2.910672478e-57
1.573239843e-52
1.252891223e-57
4.803013122e-40
1.792020841e-38
5.285848673e-37
2.76839538e-57
0.0003143865891
-0.017532878
0.5835951229
4.351185e-76
4.475655828e-76
5.218228861e-76
6.451435868e-76
8.505018384e-76
1.211574506e-75
1.855781886e-75
3.043088238e-75
5.354465585e-75
1.012388779e-74
2.061862517e-74
4.534748721e-74
1.079758685e-73
2.793022613e-73
7.881675296e-73
2.418568374e-72
8.113602058e-72
3.009232191e-71
1.231744539e-70
5.584746762e-70
2.831858656e-69
1.655813902e-68
1.204681227e-67
1.250207476e-66
2.196995489e-65
7.599796445e-64
5.50556417e-62
7.958959072e-60
1.308719752e-57
1.20169187e-55
6.884958514e-54
0
2.263192448e-40
9.752537827e-40
2.726110717e-38
2.857214473e-37
1.606351126e-57
0.0002748448152
-0.01807234222
0.5859727798
1.609156567e-71
1.651145987e-71
1.911231766e-71
2.33986101e-71
3.046068737e-71
4.274168923e-71
6.431332489e-71
1.033433528e-70
1.777798859e-70
3.279480514e-70
6.504508789e-70
1.391100389e-69
3.21716055e-69
8.076254776e-69
2.211415027e-68
6.586372031e-68
2.146729915e-67
7.746244914e-67
3.091345272e-66
1.370848581e-65
6.838005655e-65
3.993410837e-64
3.002930887e-63
3.379118275e-62
6.757478655e-61
2.681993473e-59
2.217552425e-57
3.410707765e-55
5.42329006e-53
4.622726394e-51
2.42458036e-49
4.042176672e-68
7.016919548e-37
1.550858472e-38
3.386725922e-38
1.240142741e-37
0
0.000237745359
-0.018612811
0.5881462043
5.792807836e-67
5.928220477e-67
6.810089741e-67
8.251724935e-67
1.06009111e-66
1.464036877e-66
2.162025692e-66
3.400599702e-66
5.712193857e-66
1.026585887e-65
1.979753213e-65
4.110031735e-65
9.214447313e-65
2.240292618e-64
5.939564871e-64
1.713234874e-63
5.413387027e-63
1.896424593e-62
7.364103381e-62
3.188466471e-61
1.564325263e-60
9.170191726e-60
7.214787512e-59
8.914431101e-58
2.052045346e-56
9.253673156e-55
8.63038065e-53
1.39661943e-50
2.107133619e-48
1.676172261e-46
7.604065849e-45
1.18984326e-63
6.645563031e-35
2.703942702e-36
7.279487736e-35
6.023278852e-34
0
0.0002171129024
-0.01908833917
0.5901019632
2.032911972e-62
2.074413764e-62
2.36405047e-62
2.833527031e-62
3.589922287e-62
4.875742093e-62
7.059650097e-62
1.08565767e-61
1.778336454e-61
3.109032324e-61
5.819939191e-61
1.170670478e-60
2.539097639e-60
5.965586778e-60
1.527881339e-59
4.257982796e-59
1.301171786e-58
4.415166454e-58
1.664570946e-57
7.024486837e-57
3.392547543e-56
2.011692391e-55
1.678380131e-54
2.305300524e-53
6.150345306e-52
3.113135357e-50
3.217992187e-48
5.43858961e-46
7.660341594e-44
5.690751786e-42
2.193836172e-40
0
3.930290786e-34
1.841128612e-33
3.248267033e-30
2.846034748e-29
0
0.0002288194924
-0.01940218744
0.5920046347
6.965463509e-58
7.085053704e-58
8.006873367e-58
9.487869535e-58
1.184647485e-57
1.581010541e-57
2.242202847e-57
3.367345108e-57
5.371415365e-57
9.120962516e-57
1.654419441e-56
3.218013941e-56
6.73758176e-56
1.526104231e-55
3.766366605e-55
1.011495345e-54
2.981510012e-54
9.774432158e-54
3.569095275e-53
1.465497501e-52
6.984328036e-52
4.23681204e-51
3.798793586e-50
5.872802375e-49
1.812820311e-47
1.018806209e-45
1.140282224e-43
2.000836938e-41
2.605647196e-39
1.795038957e-37
5.723108117e-36
2.090355943e-34
4.265633359e-49
1.033892347e-28
1.448071277e-25
1.322971324e-24
2.789018876e-43
0.000292782156
-0.01943445239
0.5935374571
2.333862839e-53
2.365581096e-53
2.649934726e-53
3.10260636e-53
3.815110004e-53
4.9989901e-53
6.937100585e-53
1.01618218e-52
1.576316168e-52
2.595573981e-52
4.553545763e-52
8.547021984e-52
1.723422017e-51
3.753796021e-51
8.903061928e-51
2.297656094e-50
6.514180434e-50
2.057533434e-49
7.257040532e-49
2.895552634e-48
1.368676896e-47
8.6218758e-47
8.414139343e-46
1.481467872e-44
5.219650251e-43
3.233916083e-41
3.815754013e-39