/*--------------------------------*- C++ -*----------------------------------*\
| =========                 |                                                 |
| \\      /  F ield         | OpenFOAM: The Open Source CFD Toolbox           |
|  \\    /   O peration     | Version:  v1912                                 |
|   \\  /    A nd           | Website:  www.openfoam.com                      |
|    \\/     M anipulation  |                                                 |
\*---------------------------------------------------------------------------*/
FoamFile
{
    version     2.0;
    format      ascii;
    class       volScalarField;
    location    "0.5";
    object      k.gas_0;
}
// * * * * * * * * * * * * * * * * * * * * * * * * * * * * * * * * * * * * * //

dimensions      [0 2 -2 0 0 0 0];


internalField   nonuniform List<scalar> 
4800
(
3.693643553e-07
4.629674198e-07
5.047062732e-07
5.309955835e-07
5.506653816e-07
5.670339737e-07
5.817663092e-07
5.958540272e-07
6.099716549e-07
6.246330984e-07
6.402704004e-07
6.572782431e-07
6.760421396e-07
6.969584578e-07
7.204505417e-07
7.469832498e-07
7.770774648e-07
8.113256887e-07
8.50409756e-07
8.951217015e-07
9.463890149e-07
1.005305833e-06
1.07317213e-06
1.151543783e-06
1.242297606e-06
1.347717264e-06
1.470609021e-06
1.614460975e-06
1.783667256e-06
1.983851754e-06
2.222352159e-06
2.508928989e-06
2.857219712e-06
3.284728253e-06
3.824321988e-06
4.532939013e-06
5.181546683e-06
8.025099392e-06
1.996836416e-06
1.988504051e-05
1.000703925e-06
1.315268949e-06
1.464198712e-06
1.557971023e-06
1.625108999e-06
1.676636002e-06
1.71800415e-06
1.752292508e-06
1.781400726e-06
1.806578352e-06
1.828688319e-06
1.848349916e-06
1.866021655e-06
1.882051966e-06
1.896711566e-06
1.910214936e-06
1.922735024e-06
1.934413638e-06
1.945368985e-06
1.955701313e-06
1.965497287e-06
1.974833496e-06
1.983779432e-06
1.992400172e-06
2.000758936e-06
2.008919785e-06
2.016950636e-06
2.024926867e-06
2.032935928e-06
2.041082868e-06
2.049505124e-06
2.058295363e-06
2.068430134e-06
2.074124058e-06
2.112402658e-06
2.020273641e-06
2.347783897e-06
1.358315031e-06
5.272684599e-06
5.560653233e-05
9.507836744e-07
1.247375377e-06
1.38751458e-06
1.475727031e-06
1.538903747e-06
1.587408323e-06
1.626358339e-06
1.658640851e-06
1.686035795e-06
1.70971345e-06
1.730481843e-06
1.748920832e-06
1.765459779e-06
1.780424999e-06
1.794070045e-06
1.806595742e-06
1.818163884e-06
1.828906854e-06
1.838934567e-06
1.848339607e-06
1.85720114e-06
1.865587988e-06
1.873561168e-06
1.881176076e-06
1.888484549e-06
1.89553697e-06
1.902384651e-06
1.909082813e-06
1.91569463e-06
1.922296913e-06
1.928991868e-06
1.935887334e-06
1.9434712e-06
1.949605492e-06
1.972035678e-06
1.910777514e-06
2.240051405e-06
1.172217463e-06
2.813835394e-06
7.627098013e-05
9.541439969e-07
1.251998116e-06
1.392734022e-06
1.481319018e-06
1.544759108e-06
1.593465126e-06
1.632578491e-06
1.664999849e-06
1.692517555e-06
1.716307431e-06
1.73718132e-06
1.75572181e-06
1.772360277e-06
1.787424565e-06
1.801169415e-06
1.813796611e-06
1.825468739e-06
1.836318868e-06
1.846457534e-06
1.855977914e-06
1.86495977e-06
1.873472559e-06
1.881577986e-06
1.889332226e-06
1.896787994e-06
1.903996649e-06
1.911010533e-06
1.917885821e-06
1.924686245e-06
1.931488131e-06
1.938389223e-06
1.945506065e-06
1.953081047e-06
1.961141856e-06
1.970599485e-06
1.969331792e-06
2.087450597e-06
1.83468244e-06
8.585216098e-06
9.46331424e-05
9.538798102e-07
1.25162195e-06
1.392290918e-06
1.480833776e-06
1.544242389e-06
1.592923075e-06
1.632014977e-06
1.66441742e-06
1.691917928e-06
1.715691775e-06
1.736550416e-06
1.755076156e-06
1.771700149e-06
1.786750058e-06
1.800480461e-06
1.813092981e-06
1.824750039e-06
1.835584514e-06
1.845706713e-06
1.855209528e-06
1.864172349e-06
1.872664145e-06
1.880745963e-06
1.888473073e-06
1.895896927e-06
1.903067077e-06
1.91003323e-06
1.916847613e-06
1.92356788e-06
1.930260896e-06
1.937006862e-06
1.943917157e-06
1.951010077e-06
1.959410094e-06
1.963691947e-06
1.979314983e-06
2.066754743e-06
2.156498913e-06
8.268400279e-06
0.0001109477892
9.538729876e-07
1.251610465e-06
1.392261805e-06
1.480793952e-06
1.544193609e-06
1.592866542e-06
1.631951623e-06
1.664347997e-06
1.69184307e-06
1.715612035e-06
1.73646629e-06
1.754988091e-06
1.771608551e-06
1.786655289e-06
1.800382833e-06
1.81299274e-06
1.824647346e-06
1.835479414e-06
1.845599092e-06
1.855099054e-06
1.864058395e-06
1.872545675e-06
1.880621376e-06
1.888339979e-06
1.895751817e-06
1.902904837e-06
1.909846401e-06
1.91662525e-06
1.923293762e-06
1.92991074e-06
1.936543003e-06
1.943291833e-06
1.950047891e-06
1.958567727e-06
1.960253204e-06
1.982460435e-06
2.022368555e-06
9.933709876e-07
1.043799641e-05
0.0001270769542
9.538501592e-07
1.251577049e-06
1.392204758e-06
1.48072256e-06
1.544110401e-06
1.592773182e-06
1.631849343e-06
1.664237758e-06
1.691725652e-06
1.715488095e-06
1.736336396e-06
1.754852741e-06
1.771468181e-06
1.786510274e-06
1.800233479e-06
1.812839268e-06
1.824489869e-06
1.8353179e-06
1.845433317e-06
1.854928534e-06
1.863882293e-06
1.872362679e-06
1.880429523e-06
1.888136415e-06
1.89553245e-06
1.90266384e-06
1.90957549e-06
1.91631262e-06
1.922922521e-06
1.929456511e-06
1.935971909e-06
1.942541396e-06
1.949139221e-06
1.957113353e-06
1.955363626e-06
2.011989062e-06
1.874572658e-06
1.520470937e-06
1.667337877e-05
0.0001426046844
9.5383087e-07
1.251550064e-06
1.392152508e-06
1.480655147e-06
1.544030391e-06
1.592682291e-06
1.631748871e-06
1.664128732e-06
1.691608921e-06
1.715364385e-06
1.736206346e-06
1.754716917e-06
1.771327088e-06
1.786364353e-06
1.800083098e-06
1.812684709e-06
1.824331292e-06
1.835155313e-06
1.845266517e-06
1.854757039e-06
1.863705246e-06
1.872178715e-06
1.880236595e-06
1.887931554e-06
1.895311433e-06
1.902420729e-06
1.909301989e-06
1.915997173e-06
1.922549076e-06
1.92900281e-06
1.935408395e-06
1.941814813e-06
1.948316392e-06
1.955265775e-06
1.955178762e-06
2.028877827e-06
1.651704064e-06
2.619928282e-06
3.373989656e-05
0.0001592504687
9.538137951e-07
1.251527594e-06
1.392102842e-06
1.480589325e-06
1.543951059e-06
1.592591245e-06
1.631647488e-06
1.664018114e-06
1.691489989e-06
1.715237935e-06
1.736073083e-06
1.754577477e-06
1.771182043e-06
1.786214209e-06
1.799928289e-06
1.812525572e-06
1.824168045e-06
1.834988007e-06
1.845094986e-06
1.854580821e-06
1.863523488e-06
1.87199004e-06
1.880038934e-06
1.887721912e-06
1.895085584e-06
1.902172809e-06
1.909023946e-06
1.915678042e-06
1.922174049e-06
1.928552234e-06
1.934854825e-06
1.941144995e-06
1.947255004e-06
1.955822036e-06
1.943563003e-06
2.073462387e-06
1.510576237e-06
6.88218186e-06
5.171957738e-05
0.0001758250213
9.537991343e-07
1.251509988e-06
1.392056188e-06
1.480525582e-06
1.543872944e-06
1.592500626e-06
1.631545816e-06
1.663906562e-06
1.691369547e-06
1.715109468e-06
1.735937366e-06
1.754435216e-06
1.771033881e-06
1.786060727e-06
1.799769991e-06
1.81236287e-06
1.824001225e-06
1.834817187e-06
1.84492006e-06
1.854401383e-06
1.863338735e-06
1.871798643e-06
1.879838876e-06
1.887510275e-06
1.894858277e-06
1.901924218e-06
1.908746471e-06
1.915361546e-06
1.921805202e-06
1.928113819e-06
1.934324084e-06
1.940505466e-06
1.946291405e-06
1.956971785e-06
1.919838343e-06
2.253386567e-06
5.873681982e-07
1.363792874e-06
9.205485103e-05
0.0001938264498
9.537869992e-07
1.251497464e-06
1.392012814e-06
1.480464236e-06
1.543796404e-06
1.592410825e-06
1.631444276e-06
1.663794523e-06
1.691248067e-06
1.714979481e-06
1.735799718e-06
1.754290685e-06
1.770883186e-06
1.785904526e-06
1.799608871e-06
1.812197324e-06
1.823831624e-06
1.834643735e-06
1.844742737e-06
1.854219869e-06
1.863152314e-06
1.871606086e-06
1.879638282e-06
1.887298883e-06
1.894632231e-06
1.901678261e-06
1.908473577e-06
1.915052515e-06
1.921448189e-06
1.927693819e-06
1.933821325e-06
1.939910969e-06
1.945382291e-06
1.957892482e-06
1.904744697e-06
2.312880279e-06
3.13448801e-07
1.199281271e-05
0.0001206418242
0.0002127997408
9.537775313e-07
1.251490282e-06
1.391973037e-06
1.480405662e-06
1.543721857e-06
1.592322301e-06
1.631343359e-06
1.663682519e-06
1.6911261e-06
1.714848551e-06
1.735660743e-06
1.754144517e-06
1.770730623e-06
1.785746311e-06
1.799445679e-06
1.812029745e-06
1.823660126e-06
1.834468627e-06
1.844564106e-06
1.854037509e-06
1.862965636e-06
1.871414e-06
1.879439057e-06
1.887089979e-06
1.894410094e-06
1.901438051e-06
1.908208913e-06
1.914755154e-06
1.921107674e-06
1.927296964e-06
1.933351222e-06
1.939359395e-06
1.944578575e-06
1.958014065e-06
1.905701458e-06
2.149099905e-06
2.273498035e-06
2.096182967e-05
0.0001512471855
0.0002327167855
9.537708953e-07
1.251488739e-06
1.391937217e-06
1.480350279e-06
1.543649773e-06
1.592235562e-06
1.631243612e-06
1.663571129e-06
1.691004253e-06
1.714717315e-06
1.735521105e-06
1.753997405e-06
1.770576919e-06
1.785586847e-06
1.799281228e-06
1.811861e-06
1.823487671e-06
1.834292889e-06
1.844385303e-06
1.853855578e-06
1.862780141e-06
1.871224027e-06
1.879243087e-06
1.886885738e-06
1.894194362e-06
1.901206456e-06
1.907955736e-06
1.914473067e-06
1.920787422e-06
1.926926976e-06
1.932917654e-06
1.938838932e-06
1.944121065e-06
1.954232209e-06
1.940809946e-06
1.984848122e-06
1.186504202e-06
3.799726172e-06
0.000182592396
0.0002534791406
9.537672806e-07
1.251493165e-06
1.391905751e-06
1.48029855e-06
1.543580667e-06
1.592151172e-06
1.631145636e-06
1.663460989e-06
1.690883194e-06
1.714586469e-06
1.735381529e-06
1.753850106e-06
1.770422863e-06
1.78542696e-06
1.799116389e-06
1.811692018e-06
1.823315254e-06
1.834117603e-06
1.844207516e-06
1.853675388e-06
1.862597295e-06
1.871037817e-06
1.879052236e-06
1.886688269e-06
1.893987403e-06
1.900986134e-06
1.907716973e-06
1.914209371e-06
1.920490597e-06
1.926586958e-06
1.932522469e-06
1.938368879e-06
1.943641301e-06
1.952549715e-06
1.948522223e-06
1.960150776e-06
8.447834983e-07
7.297865825e-06
0.0002145462779
0.0002750611515
9.537669027e-07
1.25150393e-06
1.391879082e-06
1.480250991e-06
1.543515113e-06
1.592069752e-06
1.631050094e-06
1.663352799e-06
1.690763657e-06
1.714456778e-06
1.735242809e-06
1.753703441e-06
1.770269308e-06
1.785267542e-06
1.798952098e-06
1.811523786e-06
1.823143929e-06
1.833943904e-06
1.844031976e-06
1.853498292e-06
1.862418592e-06
1.870857029e-06
1.878868357e-06
1.886499616e-06
1.893791493e-06
1.900779575e-06
1.907495287e-06
1.913966815e-06
1.92021999e-06
1.926279526e-06
1.932168212e-06
1.93794106e-06
1.943338851e-06
1.949677955e-06
1.967961519e-06
1.823644747e-06
1.39853288e-06
1.197789702e-05
0.0002472088609
0.0002974978631
9.537700055e-07
1.251521442e-06
1.391857697e-06
1.480208167e-06
1.543453738e-06
1.591991983e-06
1.630957714e-06
1.663247327e-06
1.690646444e-06
1.714329074e-06
1.735105808e-06
1.753558305e-06
1.770117181e-06
1.785109554e-06
1.798789356e-06
1.81135736e-06
1.822974814e-06
1.833772985e-06
1.843859972e-06
1.853325688e-06
1.862245563e-06
1.870683351e-06
1.878693301e-06
1.8863218e-06
1.89360884e-06
1.900589147e-06
1.907293159e-06
1.91374794e-06
1.919978106e-06
1.926006948e-06
1.93185675e-06
1.937559416e-06
1.943106321e-06
1.948307747e-06
1.95977091e-06
1.806198895e-06
4.124584098e-06
1.742558904e-05
0.0002805238823
0.0003208514567
9.537768621e-07
1.25154615e-06
1.391842134e-06
1.480170701e-06
1.543397234e-06
1.591918613e-06
1.630869294e-06
1.663145413e-06
1.690532431e-06
1.714204269e-06
1.734971467e-06
1.753415668e-06
1.769967483e-06
1.784954033e-06
1.798629244e-06
1.811193865e-06
1.822809095e-06
1.833606106e-06
1.843692853e-06
1.853159034e-06
1.862079791e-06
1.870518504e-06
1.878528926e-06
1.886156859e-06
1.893441628e-06
1.900417155e-06
1.907112975e-06
1.913555158e-06
1.919767255e-06
1.925771347e-06
1.931588462e-06
1.937245777e-06
1.942782031e-06
1.947298113e-06
1.960860301e-06
1.911561311e-06
4.613511683e-06
2.342560616e-05
0.0003144836062
0.0003452148534
9.537877774e-07
1.251578548e-06
1.39183298e-06
1.480139271e-06
1.543346353e-06
1.59185046e-06
1.630785705e-06
1.663047973e-06
1.690422578e-06
1.714083356e-06
1.734840814e-06
1.753276588e-06
1.769821304e-06
1.784802102e-06
1.798472923e-06
1.811034514e-06
1.822648042e-06
1.83344461e-06
1.843532047e-06
1.852999862e-06
1.86192293e-06
1.870364272e-06
1.878377157e-06
1.886006869e-06
1.893292066e-06
1.900265914e-06
1.906957111e-06
1.913390831e-06
1.919589669e-06
1.925574637e-06
1.931366388e-06
1.936973439e-06
1.942733471e-06
1.943797862e-06
1.984521607e-06
1.880563279e-06
6.616586138e-06
2.993801506e-05
0.000349106501
0.0003707014859
9.538030891e-07
1.251619171e-06
1.391830875e-06
1.480114621e-06
1.543301919e-06
1.591788416e-06
1.630707898e-06
1.662956012e-06
1.69031793e-06
1.71396742e-06
1.734714966e-06
1.753142217e-06
1.769679829e-06
1.784654982e-06
1.798321654e-06
1.810880613e-06
1.822493022e-06
1.833289935e-06
1.843379081e-06
1.852849803e-06
1.861776731e-06
1.870222529e-06
1.878240032e-06
1.885874003e-06
1.893162453e-06
1.900137824e-06
1.906828017e-06
1.913257367e-06
1.919447605e-06
1.925418817e-06
1.931191504e-06
1.936755326e-06
1.942775896e-06
1.939691883e-06
2.022721487e-06
1.506701978e-06
6.309911566e-06
3.899074158e-05
0.0003844614604
0.0003974214165
9.538231699e-07
1.251668603e-06
1.391836519e-06
1.480097558e-06
1.543264829e-06
1.591733453e-06
1.630636911e-06
1.662870622e-06
1.69021963e-06
1.713857645e-06
1.734595146e-06
1.753013811e-06
1.769544348e-06
1.784514e-06
1.798176806e-06
1.810733584e-06
1.822345516e-06
1.833143638e-06
1.843235604e-06
1.852710617e-06
1.861643072e-06
1.870095299e-06
1.878119728e-06
1.885760584e-06
1.893055249e-06
1.900035447e-06
1.906728301e-06
1.913157334e-06
1.919343466e-06
1.925305988e-06
1.931065026e-06
1.936601306e-06
1.942741044e-06
1.937494433e-06
2.040915753e-06
1.408986559e-06
8.219060519e-06
4.763182281e-05
0.0004205537343
0.0004255047583
9.538484286e-07
1.251727473e-06
1.391850669e-06
1.480088958e-06
1.543236057e-06
1.59168663e-06
1.630573873e-06
1.662792995e-06
1.690128923e-06
1.713755325e-06
1.73448269e-06
1.752892746e-06
1.769416276e-06
1.784380611e-06
1.79803988e-06
1.810594979e-06
1.822207142e-06
1.833007417e-06
1.843103413e-06
1.852584216e-06
1.861524003e-06
1.869984797e-06
1.878018617e-06
1.885669154e-06
1.892973151e-06
1.899961604e-06
1.906660841e-06
1.913093572e-06
1.91927992e-06
1.925238455e-06
1.930988931e-06
1.936506649e-06
1.942731788e-06
1.935746984e-06
2.056330584e-06
1.384095256e-06
8.925728606e-06
5.875558434e-05
0.0004571998447
0.0004551007761
9.53879312e-07
1.251796458e-06
1.391874142e-06
1.480089771e-06
1.543216658e-06
1.591649094e-06
1.630520014e-06
1.66272443e-06
1.69004717e-06
1.713661873e-06
1.734379061e-06
1.75278053e-06
1.769297165e-06
1.784256413e-06
1.797912525e-06
1.810466508e-06
1.822079684e-06
1.832883147e-06
1.842984496e-06
1.852472719e-06
1.8614218e-06
1.869893474e-06
1.877939343e-06
1.885602554e-06
1.892919186e-06
1.899919472e-06
1.906628904e-06
1.913069332e-06
1.91926005e-06
1.925218915e-06
1.93096531e-06
1.936470773e-06
1.942771638e-06
1.934125835e-06
2.073100268e-06
1.378403841e-06
1.207845223e-05
7.057394353e-05
0.0004944233052
0.0004863860886
9.539163054e-07
1.25187628e-06
1.39190782e-06
1.480101019e-06
1.543207773e-06
1.591622088e-06
1.630476666e-06
1.66266634e-06
1.689975852e-06
1.713578835e-06
1.734285859e-06
1.752678817e-06
1.769188721e-06
1.784143166e-06
1.797796561e-06
1.810350063e-06
1.82196512e-06
1.832772912e-06
1.842881062e-06
1.852378489e-06
1.861339013e-06
1.869824087e-06
1.877884892e-06
1.885564007e-06
1.892896811e-06
1.899912711e-06
1.906636287e-06
1.913088435e-06
1.919287534e-06
1.925250661e-06
1.930996617e-06
1.936497926e-06
1.94279359e-06
1.933671187e-06
2.083907019e-06
1.281969713e-06
3.606044676e-06
5.780291049e-05
0.000532270075
0.0005194462228
9.539599339e-07
1.251967709e-06
1.391952646e-06
1.480123802e-06
1.543210631e-06
1.591606955e-06
1.630445274e-06
1.662620258e-06
1.689916585e-06
1.713507898e-06
1.73420484e-06
1.752589426e-06
1.769092825e-06
1.784042819e-06
1.797694011e-06
1.810247751e-06
1.821865659e-06
1.832679047e-06
1.842795598e-06
1.852304197e-06
1.86127853e-06
1.869779775e-06
1.877858681e-06
1.885557231e-06
1.892910041e-06
1.899945606e-06
1.906687478e-06
1.91315546e-06
1.919366861e-06
1.925337823e-06
1.93108627e-06
1.9365895e-06
1.942809879e-06
1.934214684e-06
2.086525069e-06
1.187521484e-06
3.99475771e-06
1.103107661e-05
0.0005723968826
0.0005542801372
9.54010763e-07
1.252071559e-06
1.392009628e-06
1.480159295e-06
1.543226551e-06
1.591605141e-06
1.630427396e-06
1.662587847e-06
1.689871126e-06
1.713450907e-06
1.73413793e-06
1.75251436e-06
1.76901156e-06
1.783957534e-06
1.797607127e-06
1.81016193e-06
1.821783786e-06
1.832604188e-06
1.842730921e-06
1.852252887e-06
1.861243661e-06
1.869764157e-06
1.877864677e-06
1.885586565e-06
1.892963596e-06
1.90002324e-06
1.90678786e-06
1.913275973e-06
1.919503589e-06
1.925485664e-06
1.93123894e-06
1.936746741e-06
1.942854711e-06
1.935293862e-06
2.085252415e-06
1.127541821e-06
5.001849859e-06
1.83564608e-05
0.0006135147768
0.0005909914993
9.540693989e-07
1.25218868e-06
1.392079837e-06
1.480208754e-06
1.543256943e-06
1.591618199e-06
1.630424715e-06
1.662570907e-06
1.689841383e-06
1.713409872e-06
1.734087237e-06
1.752455824e-06
1.768947226e-06
1.783889717e-06
1.79753843e-06
1.81009525e-06
1.821722306e-06
1.832551325e-06
1.842690251e-06
1.852228053e-06
1.861238228e-06
1.869781436e-06
1.877907518e-06
1.885657123e-06
1.893063091e-06
1.900151711e-06
1.906943958e-06
1.913456802e-06
1.919704655e-06
1.925700934e-06
1.931460893e-06
1.936972142e-06
1.942967764e-06
1.936594436e-06
2.081640162e-06
1.13635258e-06
5.50971245e-06
2.811876829e-05
0.0006556699588
0.0006296746104
9.541364892e-07
1.252319959e-06
1.392164401e-06
1.480273506e-06
1.54330331e-06
1.591647787e-06
1.630439034e-06
1.662571379e-06
1.689829427e-06
1.713386986e-06
1.734055072e-06
1.752416247e-06
1.768902376e-06
1.783842047e-06
1.797490741e-06
1.8100507e-06
1.821684403e-06
1.832523871e-06
1.842677285e-06
1.852233734e-06
1.861266677e-06
1.869836536e-06
1.877992674e-06
1.885774985e-06
1.893215249e-06
1.900338392e-06
1.907163742e-06
1.913706393e-06
1.919978776e-06
1.925992291e-06
1.931760705e-06
1.937262308e-06
1.943361864e-06
1.935528665e-06
2.094525459e-06
1.06663286e-06
6.675856447e-06
3.964992092e-05
0.0006988515743
0.000670400386
9.542127239e-07
1.252466307e-06
1.392264509e-06
1.480354953e-06
1.543367241e-06
1.591695672e-06
1.630472285e-06
1.662591348e-06
1.689837491e-06
1.71338463e-06
1.734043961e-06
1.752398301e-06
1.768879833e-06
1.783817513e-06
1.797467229e-06
1.810031657e-06
1.821673693e-06
1.83252574e-06
1.842696291e-06
1.852274623e-06
1.861334208e-06
1.869935255e-06
1.878126634e-06
1.885947409e-06
1.893428162e-06
1.900592228e-06
1.90745697e-06
1.914035208e-06
1.920336898e-06
1.926370842e-06
1.932148615e-06
1.937640659e-06
1.943806574e-06
1.934947498e-06
2.103454446e-06
1.024693804e-06
7.436685342e-06
5.140184987e-05
0.0007429015428
0.0007132163131
9.542988362e-07
1.252628646e-06
1.392381397e-06
1.480454562e-06
1.543450409e-06
1.591763719e-06
1.630526517e-06
1.662633045e-06
1.689867983e-06
1.713405382e-06
1.734056657e-06
1.752404921e-06
1.76888272e-06
1.783819442e-06
1.797471457e-06
1.81004195e-06
1.821694316e-06
1.832561438e-06
1.842752217e-06
1.852356197e-06
1.861446924e-06
1.870084428e-06
1.878317067e-06
1.886183003e-06
1.893711459e-06
1.900923923e-06
1.907835424e-06
1.914456023e-06
1.920792591e-06
1.92685059e-06
1.932638544e-06
1.938120076e-06
1.944336246e-06
1.934278693e-06
2.117282465e-06
8.832505769e-07
5.876748338e-07
6.38216622e-05
0.0007877363195
0.0007581595956
9.543955936e-07
1.252807882e-06
1.392516335e-06
1.480573849e-06
1.543554558e-06
1.591853888e-06
1.630603898e-06
1.66269884e-06
1.689923477e-06
1.713452028e-06
1.734096162e-06
1.75243933e-06
1.768914505e-06
1.783851573e-06
1.797507461e-06
1.810085942e-06
1.821751019e-06
1.832636167e-06
1.842850795e-06
1.852484823e-06
1.861611955e-06
1.870292068e-06
1.878572992e-06
1.886491905e-06
1.894076501e-06
1.901346143e-06
1.908313111e-06
1.91498414e-06
1.921362278e-06
1.927448764e-06
1.93324811e-06
1.938715435e-06
1.944995354e-06
1.933336156e-06
2.135078174e-06
7.045595783e-07
1.512185299e-06
7.993702197e-05
0.0008333876166
0.0008052245938
9.545037774e-07
1.253004892e-06
1.392670631e-06
1.480714387e-06
1.543681507e-06
1.591968236e-06
1.630706723e-06
1.66279127e-06
1.690006756e-06
1.713527604e-06
1.73416578e-06
1.752505125e-06
1.768979088e-06
1.78391812e-06
1.797579792e-06
1.810168577e-06
1.821849214e-06
1.832755883e-06
1.842998623e-06
1.852667855e-06
1.861837569e-06
1.870567568e-06
1.878905147e-06
1.886886386e-06
1.894537227e-06
1.901874544e-06
1.90890736e-06
1.915638413e-06
1.922066096e-06
1.928186497e-06
1.933998849e-06
1.939450395e-06
1.945761479e-06
1.932718238e-06
2.150950583e-06
5.441682506e-07
2.590788959e-06
9.524302153e-05
0.0008796445043
0.0008543629831
9.546244631e-07
1.253220872e-06
1.392845781e-06
1.480877901e-06
1.543833228e-06
1.592108995e-06
1.630837489e-06
1.662913102e-06
1.690120864e-06
1.713635439e-06
1.734269128e-06
1.752606217e-06
1.769080703e-06
1.784023676e-06
1.797693446e-06
1.810295315e-06
1.821994897e-06
1.832927256e-06
1.843203224e-06
1.852913867e-06
1.862133618e-06
1.87092234e-06
1.87932683e-06
1.887381947e-06
1.895111582e-06
1.902529618e-06
1.909641099e-06
1.916443848e-06
1.922930553e-06
1.92909114e-06
1.934918359e-06
1.940351218e-06
1.946668531e-06
1.932407201e-06
2.164992621e-06
3.862162549e-07
4.252424289e-06
0.0001128738122
0.0009261538685
0.0009054677907
9.547615817e-07
1.253457162e-06
1.393043745e-06
1.481066273e-06
1.544011732e-06
1.592278369e-06
1.63099863e-06
1.663067021e-06
1.690268758e-06
1.71377878e-06
1.734409773e-06
1.752746519e-06
1.769223641e-06
1.78417298e-06
1.797853708e-06
1.810472074e-06
1.822194727e-06
1.833157859e-06
1.843473368e-06
1.85323317e-06
1.862512228e-06
1.871370539e-06
1.879854457e-06
1.8879976e-06
1.895821582e-06
1.903336792e-06
1.910543424e-06
1.917433113e-06
1.923991235e-06
1.93019983e-06
1.936043818e-06
1.941452281e-06
1.947778944e-06
1.931937844e-06
2.183078585e-06
2.035793984e-07
6.501106247e-06
0.0001360673467
0.0009724849357
0.0009587070709
9.549290849e-07
1.253701902e-06
1.393265312e-06
1.481280449e-06
1.544218356e-06
1.592478024e-06
1.631192116e-06
1.663255311e-06
1.69045306e-06
1.713960626e-06
1.734591132e-06
1.752929926e-06
1.769412335e-06
1.784371075e-06
1.798066363e-06
1.8107056e-06
1.82245667e-06
1.83345703e-06
1.843819796e-06
1.853638023e-06
1.862987528e-06
1.8719286e-06
1.880507219e-06
1.888755701e-06
1.896693152e-06
1.904325974e-06
1.911648689e-06
1.918645423e-06
1.925292286e-06
1.931560738e-06
1.93742508e-06
1.942803751e-06
1.949103005e-06
1.931929987e-06
2.197793702e-06
1.088600256e-07
8.620202346e-06
0.0001613555336
0.001019051338
0.001014361288
9.551216247e-07
1.253958522e-06
1.39351081e-06
1.481521284e-06
1.54445443e-06
1.592709706e-06
1.631420082e-06
1.663480499e-06
1.690676705e-06
1.714184359e-06
1.734817116e-06
1.753161009e-06
1.769652195e-06
1.784624348e-06
1.798338808e-06
1.811004282e-06
1.822790182e-06
1.83383553e-06
1.844254893e-06
1.854142795e-06
1.863576241e-06
1.872616147e-06
1.88130834e-06
1.88968381e-06
1.897758842e-06
1.905535171e-06
1.913000526e-06
1.920129922e-06
1.926888176e-06
1.933233514e-06
1.939125928e-06
1.944468939e-06
1.950722229e-06
1.932080257e-06
2.206569243e-06
1.594462423e-06
9.716664176e-06
1.970377166e-05
0.001068466255
0.001072223476
9.553350584e-07
1.254232625e-06
1.393781364e-06
1.481790353e-06
1.544721949e-06
1.592975873e-06
1.63168547e-06
1.663746029e-06
1.690943676e-06
1.714454535e-06
1.735092841e-06
1.753445372e-06
1.769949251e-06
1.784939399e-06
1.798678574e-06
1.81137699e-06
1.823205659e-06
1.834305348e-06
1.844792665e-06
1.854764227e-06
1.864298464e-06
1.87345731e-06
1.882286732e-06
1.890816465e-06
1.899059748e-06
1.907012948e-06
1.91465565e-06
1.921951611e-06
1.928851336e-06
1.935296251e-06
1.941228359e-06
1.946531014e-06
1.952721781e-06
1.932432091e-06
2.225110945e-06
6.471759507e-08
1.037688936e-05
3.113534893e-05
0.001119772119
0.001132077599
9.555681151e-07
1.254534169e-06
1.394080679e-06
1.482090852e-06
1.545023776e-06
1.593279384e-06
1.631991349e-06
1.664055313e-06
1.691257829e-06
1.714775543e-06
1.73542335e-06
1.753788844e-06
1.770310181e-06
1.78532357e-06
1.799093406e-06
1.811832065e-06
1.823713041e-06
1.834879319e-06
1.845449508e-06
1.855522312e-06
1.865178287e-06
1.874481205e-06
1.883477589e-06
1.892196164e-06
1.900647003e-06
1.908820371e-06
1.916686182e-06
1.924194409e-06
1.931277397e-06
1.937854568e-06
1.943843874e-06
1.949103082e-06
1.955178969e-06
1.934542365e-06
2.167090372e-06
1.949098932e-06
1.117736137e-05
4.368559288e-05
0.001171739261
0.001193884136
9.558163223e-07
1.254857344e-06
1.394407088e-06
1.482422538e-06
1.545360416e-06
1.593621247e-06
1.632339183e-06
1.66441031e-06
1.691621681e-06
1.715150567e-06
1.735812652e-06
1.754196526e-06
1.770741561e-06
1.785785393e-06
1.799594124e-06
1.812382267e-06
1.824326003e-06
1.83557182e-06
1.846242215e-06
1.856438556e-06
1.866243516e-06
1.875722771e-06
1.884924079e-06
1.893875918e-06
1.902585255e-06
1.91103563e-06
1.919185603e-06
1.926968287e-06
1.934293068e-06
1.941050743e-06
1.947126295e-06
1.952342915e-06
1.95825502e-06
1.936191822e-06
2.180350001e-06
2.352576985e-06
1.235424376e-05
5.938386741e-05
0.001224398415
0.001257663924
9.560809608e-07
1.255203171e-06
1.394761095e-06
1.48278611e-06
1.545732908e-06
1.594002875e-06
1.632730816e-06
1.664813371e-06
1.692038194e-06
1.715583279e-06
1.736265221e-06
1.754673764e-06
1.771249736e-06
1.786332598e-06
1.800190667e-06
1.813040931e-06
1.825062208e-06
1.836404313e-06
1.847194234e-06
1.8575387e-06
1.867525278e-06
1.877222131e-06
1.886678e-06
1.895921207e-06
1.904956064e-06
1.913759109e-06
1.922275874e-06
1.930419066e-06
1.938069142e-06
1.945079574e-06
1.951290233e-06
1.956477051e-06
1.962086773e-06
1.940953389e-06
2.199916061e-06
3.030650702e-07
1.399493986e-05
7.598752915e-05
0.001277454507
0.00132345211
9.563622135e-07
1.255571685e-06
1.395142862e-06
1.483181944e-06
1.546141931e-06
1.594425306e-06
1.633167699e-06
1.665266449e-06
1.692509936e-06
1.716077015e-06
1.736785352e-06
1.755226042e-06
1.771841619e-06
1.786973669e-06
1.800893134e-06
1.813820181e-06
1.825937428e-06
1.837398843e-06
1.848335606e-06
1.858859801e-06
1.869065804e-06
1.879028652e-06
1.888801332e-06
1.898412095e-06
1.907861968e-06
1.917119987e-06
1.926117177e-06
1.934741992e-06
1.942838856e-06
1.950212711e-06
1.956642055e-06
1.961835926e-06
1.967088605e-06
1.94600251e-06
2.216860095e-06
1.956254678e-08
1.653160338e-05
9.602537858e-05
0.001330920816
0.001391286116
9.566598881e-07
1.255962551e-06
1.395552201e-06
1.483610029e-06
1.546587736e-06
1.59488913e-06
1.633650846e-06
1.665771077e-06
1.693039089e-06
1.716634771e-06
1.737377061e-06
1.755858664e-06
1.772524138e-06
1.787717613e-06
1.801713182e-06
1.814734852e-06
1.826969868e-06
1.838577628e-06
1.849695459e-06
1.86044207e-06
1.870918975e-06
1.881209466e-06
1.891375015e-06
1.90144939e-06
1.911432543e-06
1.921284993e-06
1.930921127e-06
1.940201017e-06
1.948924991e-06
1.956835776e-06
1.96362978e-06
1.968933433e-06
1.973388333e-06
1.964285822e-06
2.031209334e-06
1.362428315e-06
2.246135874e-05
0.0001141690511
0.001384240077
0.001461173094
9.569734817e-07
1.256375025e-06
1.395988474e-06
1.484069861e-06
1.547070027e-06
1.595394355e-06
1.634180666e-06
1.666328187e-06
1.693627256e-06
1.717259008e-06
1.738043918e-06
1.756576616e-06
1.773304098e-06
1.78857356e-06
1.802662917e-06
1.81580089e-06
1.828180458e-06
1.839967871e-06
1.85130846e-06
1.862329962e-06
1.873143875e-06
1.883844364e-06
1.894503867e-06
1.905166111e-06
1.915836753e-06
1.926472282e-06
1.936969753e-06
1.947156388e-06
1.956779568e-06
1.965504255e-06
1.972921199e-06
1.978526451e-06
1.98296409e-06
1.967498982e-06
2.12953539e-06
9.149651035e-07
1.671473156e-05
0.0001324089873
0.001437184283
0.001533278781
9.573021738e-07
1.256807922e-06
1.39645053e-06
1.484560354e-06
1.54758787e-06
1.59594029e-06
1.634756829e-06
1.666937944e-06
1.694275267e-06
1.717951447e-06
1.738788814e-06
1.757384337e-06
1.774187967e-06
1.789550634e-06
1.803754936e-06
1.817035416e-06
1.829592216e-06
1.841600279e-06
1.853215349e-06
1.864577358e-06
1.875811563e-06
1.887027504e-06
1.898314455e-06
1.909731945e-06
1.921297816e-06
1.932973261e-06
1.944644526e-06
1.956105566e-06
1.967042842e-06
1.977027135e-06
1.985517542e-06
1.991859002e-06
1.996417958e-06
1.978074679e-06
2.206362977e-06
7.678795188e-07
2.537220221e-05
0.0001592423215
0.001489784371
0.001607855236
9.576447974e-07
1.257259569e-06
1.39693663e-06
1.485079763e-06
1.548139591e-06
1.596525437e-06
1.635378126e-06
1.667599579e-06
1.694982986e-06
1.718712831e-06
1.739613706e-06
1.758285433e-06
1.775181583e-06
1.790657668e-06
1.805002073e-06
1.818456598e-06
1.831230396e-06
1.843509498e-06
1.85546319e-06
1.867247776e-06
1.879007849e-06
1.890874997e-06
1.90296347e-06
1.915359812e-06
1.928105765e-06
1.941179123e-06
1.954469069e-06
1.967746019e-06
1.980635092e-06
1.992599149e-06
2.002939946e-06
2.010825026e-06
2.015997747e-06
2.007538651e-06
2.163531405e-06
2.379164313e-07
4.542794584e-06
0.0001893570517
0.001540507482
0.001684738994
9.57999805e-07
1.257727768e-06
1.397444398e-06
1.485625602e-06
1.548722688e-06
1.597147371e-06
1.636042335e-06
1.668311221e-06
1.695749099e-06
1.719542677e-06
1.740519318e-06
1.759282347e-06
1.776289791e-06
1.79190284e-06
1.806417085e-06
1.820083429e-06
1.833122434e-06
1.845734352e-06
1.858106156e-06
1.870416086e-06
1.882835709e-06
1.895528976e-06
1.908647651e-06
1.922321533e-06
1.936638173e-06
1.951615168e-06
1.967169358e-06
1.983073486e-06
1.998909136e-06
2.014031781e-06
2.027569698e-06
2.038525462e-06
2.045474486e-06
2.066706366e-06
1.83574509e-06
2.941991084e-06
1.435111199e-06
0.0002185042088
0.001588781338
0.001763727882
9.583652354e-07
1.258209746e-06
1.397970758e-06
1.486194577e-06
1.549333745e-06
1.597802649e-06
1.636746089e-06
1.66906973e-06
1.696570896e-06
1.720439004e-06
1.741504813e-06
1.760375965e-06
1.777516016e-06
1.793293228e-06
1.808012225e-06
1.821935405e-06
1.835297847e-06
1.848318093e-06
1.861206294e-06
1.874170155e-06
1.88741872e-06
1.901163196e-06
1.915613099e-06
1.930966759e-06
1.947392318e-06
1.964992954e-06
1.983764474e-06
2.003541078e-06
2.023922641e-06
2.044212035e-06
2.063409599e-06
2.080412217e-06
2.094241518e-06
2.122927773e-06