/*--------------------------------*- C++ -*----------------------------------*\
| =========                 |                                                 |
| \\      /  F ield         | OpenFOAM: The Open Source CFD Toolbox           |
|  \\    /   O peration     | Version:  v1912                                 |
|   \\  /    A nd           | Website:  www.openfoam.com                      |
|    \\/     M anipulation  |                                                 |
\*---------------------------------------------------------------------------*/
FoamFile
{
    version     2.0;
    format      ascii;
    class       volScalarField;
    location    "0.5";
    object      k.gas;
}
// * * * * * * * * * * * * * * * * * * * * * * * * * * * * * * * * * * * * * //

dimensions      [0 2 -2 0 0 0 0];


internalField   nonuniform List<scalar> 
4800
(
3.69621149e-07
4.63477603e-07
5.053600889e-07
5.317487655e-07
5.514975438e-07
5.679348769e-07
5.827312891e-07
5.968819894e-07
6.110640787e-07
6.25793517e-07
6.415041326e-07
6.585922749e-07
6.774451047e-07
6.984606901e-07
7.220641869e-07
7.487224296e-07
7.789584931e-07
8.133673407e-07
8.526335949e-07
8.975524693e-07
9.490550951e-07
1.008239796e-06
1.076411374e-06
1.155131288e-06
1.246282818e-06
1.352157133e-06
1.475569224e-06
1.620017347e-06
1.789907461e-06
1.990877206e-06
2.23028022e-06
2.517894694e-06
2.867381199e-06
3.296252335e-06
3.837374652e-06
4.548257092e-06
5.195929923e-06
8.052061604e-06
1.988043963e-06
1.991305241e-05
1.00104155e-06
1.316175946e-06
1.465487362e-06
1.559534651e-06
1.626885762e-06
1.678585405e-06
1.720097749e-06
1.754509322e-06
1.783724704e-06
1.808996858e-06
1.831191178e-06
1.850928781e-06
1.868669571e-06
1.884763062e-06
1.89948083e-06
1.913038049e-06
1.925608238e-06
1.937333679e-06
1.948332982e-06
1.958706746e-06
1.968541941e-06
1.977915437e-06
1.986896982e-06
1.9955519e-06
2.003943648e-06
2.012136521e-06
2.02019867e-06
2.028205705e-06
2.036245295e-06
2.044422671e-06
2.052875523e-06
2.061695167e-06
2.071868376e-06
2.077546423e-06
2.116010157e-06
2.02350084e-06
2.352475119e-06
1.359097641e-06
5.064076122e-06
5.562757881e-05
9.511155055e-07
1.24825666e-06
1.388761472e-06
1.477236703e-06
1.540616968e-06
1.589286422e-06
1.628374187e-06
1.660774447e-06
1.688271829e-06
1.712039864e-06
1.732888917e-06
1.751400581e-06
1.768005541e-06
1.783031138e-06
1.79673174e-06
1.809308826e-06
1.820924723e-06
1.831712253e-06
1.841781697e-06
1.851225944e-06
1.860124422e-06
1.868546176e-06
1.876552414e-06
1.884198696e-06
1.891537005e-06
1.898617846e-06
1.905492638e-06
1.912216688e-06
1.918853236e-06
1.925479115e-06
1.932196561e-06
1.939112803e-06
1.946719638e-06
1.95284919e-06
1.975412685e-06
1.913673272e-06
2.244489579e-06
1.184272842e-06
3.114789282e-06
7.625395109e-05
9.544774693e-07
1.252883702e-06
1.39398698e-06
1.482836006e-06
1.546480588e-06
1.595352232e-06
1.634603961e-06
1.667143587e-06
1.694764183e-06
1.71864484e-06
1.739599751e-06
1.758213247e-06
1.774918032e-06
1.790042983e-06
1.803843657e-06
1.816522492e-06
1.828242611e-06
1.83913752e-06
1.849318123e-06
1.858877903e-06
1.867896882e-06
1.87644474e-06
1.884583375e-06
1.892369127e-06
1.899854857e-06
1.907092049e-06
1.914133154e-06
1.921034438e-06
1.927859701e-06
1.934685303e-06
1.941608993e-06
1.948747139e-06
1.956341904e-06
1.964421956e-06
1.973911874e-06
1.97247587e-06
2.090849485e-06
1.826007747e-06
8.398935732e-06
9.460613298e-05
9.542130061e-07
1.252507036e-06
1.393543189e-06
1.482349938e-06
1.545962936e-06
1.594809161e-06
1.634039355e-06
1.666560006e-06
1.694163354e-06
1.718027938e-06
1.738967564e-06
1.757566279e-06
1.774256563e-06
1.789367111e-06
1.803153316e-06
1.815817458e-06
1.827522488e-06
1.838401727e-06
1.848565844e-06
1.858108038e-06
1.867107959e-06
1.875634795e-06
1.883749784e-06
1.89150836e-06
1.898962116e-06
1.906160729e-06
1.913154011e-06
1.919994275e-06
1.926739239e-06
1.933455805e-06
1.940224144e-06
1.947155772e-06
1.954266839e-06
1.962692642e-06
1.966982205e-06
1.982422622e-06
2.069444563e-06
2.147912614e-06
8.092134597e-06
0.0001109242693
9.542061432e-07
1.252495598e-06
1.393514125e-06
1.482310158e-06
1.545914193e-06
1.594752658e-06
1.633976026e-06
1.666490605e-06
1.694088521e-06
1.717948228e-06
1.738883475e-06
1.757478262e-06
1.774165028e-06
1.789272423e-06
1.803055788e-06
1.815717337e-06
1.827419938e-06
1.83829679e-06
1.848458406e-06
1.857997765e-06
1.866994218e-06
1.875516545e-06
1.883625415e-06
1.891375471e-06
1.898817187e-06
1.905998629e-06
1.912967261e-06
1.919771909e-06
1.926465015e-06
1.933105418e-06
1.939759901e-06
1.946530035e-06
1.953303527e-06
1.961850955e-06
1.963531786e-06
1.985688077e-06
2.027822452e-06
9.831643363e-07
1.030066685e-05
0.0001270511901
9.541832511e-07
1.252462185e-06
1.393457061e-06
1.482238727e-06
1.545830926e-06
1.594659221e-06
1.633873656e-06
1.666380267e-06
1.693970996e-06
1.71782418e-06
1.738753476e-06
1.757342814e-06
1.77402457e-06
1.789127332e-06
1.802906373e-06
1.815563822e-06
1.827262435e-06
1.838135268e-06
1.848292638e-06
1.857827262e-06
1.86681814e-06
1.875333571e-06
1.883433574e-06
1.891171895e-06
1.898597768e-06
1.905757522e-06
1.912696161e-06
1.919458987e-06
1.926093353e-06
1.932650613e-06
1.939188083e-06
1.945778557e-06
1.952394153e-06
1.960401013e-06
1.958584053e-06
2.015473469e-06
1.878872971e-06
1.494515058e-06
1.664820485e-05
0.0001425848762
9.54163902e-07
1.252435218e-06
1.393404808e-06
1.482171289e-06
1.545750869e-06
1.594568263e-06
1.633773102e-06
1.666271147e-06
1.693854165e-06
1.717700368e-06
1.738623326e-06
1.757206897e-06
1.773883394e-06
1.788981343e-06
1.802755943e-06
1.815409231e-06
1.827103846e-06
1.837972688e-06
1.848125863e-06
1.857655806e-06
1.866641139e-06
1.875149652e-06
1.883240679e-06
1.890967042e-06
1.898376716e-06
1.905514313e-06
1.912422476e-06
1.919143244e-06
1.925719475e-06
1.932196317e-06
1.938623816e-06
1.945050915e-06
1.951570839e-06
1.958555001e-06
1.958334605e-06
2.032859309e-06
1.654185548e-06
2.558480076e-06
3.381540521e-05
0.0001592382711
9.541467674e-07
1.252412776e-06
1.393355145e-06
1.482105444e-06
1.545671489e-06
1.594477147e-06
1.633671631e-06
1.666160428e-06
1.693735124e-06
1.717573806e-06
1.738489954e-06
1.757067355e-06
1.773738258e-06
1.788831124e-06
1.802601076e-06
1.815250058e-06
1.826940585e-06
1.837805389e-06
1.847954358e-06
1.857479629e-06
1.86645943e-06
1.874961027e-06
1.883043055e-06
1.89075741e-06
1.898150832e-06
1.905266292e-06
1.912144241e-06
1.918823802e-06
1.92534399e-06
1.931745117e-06
1.938069403e-06
1.94438046e-06
1.95050517e-06
1.959131353e-06
1.946600938e-06
2.078010981e-06
1.501719693e-06
6.743257681e-06
5.199501745e-05
0.0001758311304
9.541320471e-07
1.252395208e-06
1.393308501e-06
1.482041683e-06
1.545593328e-06
1.594386456e-06
1.633569867e-06
1.666048768e-06
1.693614565e-06
1.717445218e-06
1.738354119e-06
1.756924983e-06
1.773589998e-06
1.78867756e-06
1.802442717e-06
1.815087318e-06
1.82677375e-06
1.837634579e-06
1.847779464e-06
1.857300242e-06
1.866274738e-06
1.874769693e-06
1.88284305e-06
1.890545799e-06
1.897923505e-06
1.905017612e-06
1.911866582e-06
1.918507001e-06
1.924974688e-06
1.931306071e-06
1.937537816e-06
1.943740187e-06
1.949536387e-06
1.960322112e-06
1.922536721e-06
2.259461437e-06
5.940778605e-07
1.19923305e-06
9.22807316e-05
0.0001938605427
9.541198523e-07
1.252382732e-06
1.393265141e-06
1.481980321e-06
1.545516741e-06
1.594296581e-06
1.633468229e-06
1.665936615e-06
1.69349296e-06
1.717315102e-06
1.738216343e-06
1.756780331e-06
1.773439196e-06
1.78852127e-06
1.802281531e-06
1.814921732e-06
1.826604137e-06
1.837461143e-06
1.847602182e-06
1.85711879e-06
1.866088395e-06
1.874577218e-06
1.88264253e-06
1.890334457e-06
1.897697465e-06
1.904771592e-06
1.911593531e-06
1.918197688e-06
1.92461724e-06
1.930885455e-06
1.937034207e-06
1.943144931e-06
1.948622809e-06
1.961263649e-06
1.90739716e-06
2.318580842e-06
3.043944637e-07
1.173933185e-05
0.0001208922941
0.0002128594183
9.541103247e-07
1.25237561e-06
1.393225387e-06
1.481921735e-06
1.545442148e-06
1.594207981e-06
1.633367211e-06
1.665824491e-06
1.69337086e-06
1.717184034e-06
1.738077231e-06
1.756634035e-06
1.77328652e-06
1.788362962e-06
1.802118271e-06
1.814754113e-06
1.826432631e-06
1.837286058e-06
1.847423605e-06
1.856936511e-06
1.865901817e-06
1.874385241e-06
1.88244341e-06
1.890125637e-06
1.897475371e-06
1.904531359e-06
1.911328751e-06
1.917900088e-06
1.92427633e-06
1.930488018e-06
1.936563285e-06
1.942592467e-06
1.947817175e-06
1.961362959e-06
1.908834248e-06
2.150441315e-06
2.239437389e-06
2.229720604e-05
0.0001514994476
0.0002328006161
9.54103629e-07
1.252374138e-06
1.393189595e-06
1.481866343e-06
1.545370019e-06
1.594121163e-06
1.633267357e-06
1.665712974e-06
1.693248872e-06
1.717052651e-06
1.737937447e-06
1.756486786e-06
1.773132695e-06
1.788203399e-06
1.80195375e-06
1.814585331e-06
1.826260174e-06
1.837110355e-06
1.847244873e-06
1.856754682e-06
1.86571645e-06
1.874195412e-06
1.882247584e-06
1.889921525e-06
1.897259731e-06
1.904299795e-06
1.911075515e-06
1.917617822e-06
1.923955745e-06
1.930117503e-06
1.936128974e-06
1.942070666e-06
1.947364289e-06
1.957511927e-06
1.944171621e-06
1.989407464e-06
1.18573189e-06
3.430191485e-06
0.0001827941153
0.0002535893918
9.540999545e-07
1.252378649e-06
1.393158166e-06
1.481814611e-06
1.545300869e-06
1.594036693e-06
1.633169271e-06
1.6656027e-06
1.693127664e-06
1.716921649e-06
1.737797717e-06
1.756339342e-06
1.772978511e-06
1.788043411e-06
1.80178884e-06
1.814416315e-06
1.826087764e-06
1.836935119e-06
1.847067176e-06
1.856574622e-06
1.865533765e-06
1.874009385e-06
1.882056927e-06
1.889724242e-06
1.897052927e-06
1.904079573e-06
1.910836768e-06
1.917354027e-06
1.923658668e-06
1.92977704e-06
1.935733125e-06
1.941599505e-06
1.946885375e-06
1.9558115e-06
1.951910503e-06
1.965321163e-06
8.404995879e-07
6.888497597e-06
0.0002147398966
0.0002751951077
9.540995176e-07
1.252389513e-06
1.393131543e-06
1.481767054e-06
1.545235274e-06
1.593955192e-06
1.633073615e-06
1.665494371e-06
1.693007971e-06
1.716791794e-06
1.737658834e-06
1.756192526e-06
1.772824824e-06
1.787883888e-06
1.80162448e-06
1.814248056e-06
1.825916458e-06
1.836761486e-06
1.846891753e-06
1.856397688e-06
1.865355265e-06
1.873828833e-06
1.881873301e-06
1.889535841e-06
1.896857249e-06
1.903873199e-06
1.910615191e-06
1.917111469e-06
1.92338791e-06
1.929469271e-06
1.935378329e-06
1.94117048e-06
1.946586092e-06
1.952905483e-06
1.971502995e-06
1.828090791e-06
1.393366394e-06
1.150543996e-05
0.0002473906773
0.0002976502887
9.541025625e-07
1.252407141e-06
1.393110215e-06
1.48172424e-06
1.545173863e-06
1.593877344e-06
1.63298112e-06
1.665388756e-06
1.692890597e-06
1.71666392e-06
1.737521665e-06
1.756047232e-06
1.772672561e-06
1.787725795e-06
1.801461673e-06
1.81408161e-06
1.825747376e-06
1.836590656e-06
1.846719895e-06
1.856225285e-06
1.865182488e-06
1.873655447e-06
1.881698565e-06
1.889358357e-06
1.896674916e-06
1.903683055e-06
1.91041328e-06
1.91689271e-06
1.923146005e-06
1.929196494e-06
1.935066475e-06
1.94078787e-06
1.946353177e-06
1.951555771e-06
1.963326749e-06
1.805767684e-06
4.098445526e-06
1.689441337e-05
0.0002806877982
0.0003210145588
9.541093636e-07
1.252431984e-06
1.393094721e-06
1.481686792e-06
1.545117326e-06
1.593803897e-06
1.632892584e-06
1.665286695e-06
1.692776419e-06
1.71653894e-06
1.737387151e-06
1.755904434e-06
1.772522726e-06
1.78757017e-06
1.8013015e-06
1.813918107e-06
1.825581708e-06
1.836423893e-06
1.846552957e-06
1.856058878e-06
1.865017024e-06
1.873490961e-06
1.881534591e-06
1.889193839e-06
1.89650813e-06
1.903511464e-06
1.910233441e-06
1.916700185e-06
1.922935285e-06
1.928960858e-06
1.93479795e-06
1.94047365e-06
1.946029551e-06
1.95053454e-06
1.964294258e-06
1.909864332e-06
4.576732132e-06
2.282336329e-05
0.0003146226279
0.0003453777495
9.541202267e-07
1.252464539e-06
1.393085651e-06
1.481655393e-06
1.545066423e-06
1.593735671e-06
1.632808881e-06
1.665189111e-06
1.692666398e-06
1.716417849e-06
1.737256321e-06
1.755765191e-06
1.772376409e-06
1.787418139e-06
1.801145128e-06
1.813758763e-06
1.825420729e-06
1.836262544e-06
1.846392375e-06
1.855900006e-06
1.864860538e-06
1.873337169e-06
1.881383315e-06
1.889044379e-06
1.896359112e-06
1.903360757e-06
1.910078071e-06
1.916536276e-06
1.922758007e-06
1.928764304e-06
1.934575871e-06
1.940200584e-06
1.945986427e-06
1.946984898e-06
1.988075964e-06
1.873411472e-06
6.574504405e-06
2.927881481e-05
0.0003492141584
0.0003708516021
9.541354914e-07
1.252505345e-06
1.393083649e-06
1.481630789e-06
1.545021978e-06
1.593673564e-06
1.632730966e-06
1.665097006e-06
1.692561584e-06
1.716301736e-06
1.737130297e-06
1.755630658e-06
1.7722348e-06
1.787270926e-06
1.800993819e-06
1.813604888e-06
1.82526581e-06
1.836108053e-06
1.846239681e-06
1.85575031e-06
1.864714787e-06
1.873195954e-06
1.881246789e-06
1.888912164e-06
1.896230182e-06
1.903233354e-06
1.90994964e-06
1.916403418e-06
1.922616455e-06
1.928608864e-06
1.934401222e-06
1.939982034e-06
1.946034628e-06
1.942818572e-06
2.026871754e-06
1.501257858e-06
6.236307995e-06
3.824032203e-05
0.0003845391576
0.0003975444343
9.541555322e-07
1.25255499e-06
1.393089418e-06
1.481613791e-06
1.544984894e-06
1.593618551e-06
1.63265988e-06
1.665011481e-06
1.692463123e-06
1.716191788e-06
1.737010305e-06
1.755502097e-06
1.772099194e-06
1.787129864e-06
1.80084895e-06
1.813457909e-06
1.825118438e-06
1.835961983e-06
1.846096532e-06
1.855611555e-06
1.864581663e-06
1.873069356e-06
1.881127203e-06
1.888799534e-06
1.896123817e-06
1.903131841e-06
1.90985078e-06
1.916304202e-06
1.922513058e-06
1.928496668e-06
1.934275245e-06
1.939828127e-06
1.946002713e-06
1.940596823e-06
2.04514834e-06
1.401093049e-06
8.122838668e-06
4.680369778e-05
0.0004205896539
0.0004255833915
9.541807605e-07
1.252614107e-06
1.39310372e-06
1.481605281e-06
1.544956148e-06
1.593571695e-06
1.63259676e-06
1.664933732e-06
1.692372267e-06
1.716089304e-06
1.736897687e-06
1.755380887e-06
1.771971009e-06
1.786996411e-06
1.800712025e-06
1.813319386e-06
1.824980239e-06
1.835826043e-06
1.845964736e-06
1.855485669e-06
1.864463228e-06
1.872959604e-06
1.881026948e-06
1.888709051e-06
1.896042736e-06
1.903059058e-06
1.909784395e-06
1.916241496e-06
1.922450516e-06
1.928430053e-06
1.934199957e-06
1.939733975e-06
1.945996522e-06
1.938825101e-06
2.060572226e-06
1.375304113e-06
8.819943135e-06
5.78449159e-05
0.0004571949497
0.000455111777
9.542116259e-07
1.252683379e-06
1.393127378e-06
1.481606214e-06
1.544936802e-06
1.59353415e-06
1.632542839e-06
1.664865063e-06
1.69229038e-06
1.715995705e-06
1.736793911e-06
1.755268542e-06
1.771851805e-06
1.786872173e-06
1.800584701e-06
1.813191034e-06
1.824853006e-06
1.835702116e-06
1.845846291e-06
1.85537478e-06
1.864361773e-06
1.872869165e-06
1.880948686e-06
1.888643576e-06
1.895989989e-06
1.903018211e-06
1.909753781e-06
1.916218582e-06
1.922431943e-06
1.928411748e-06
1.934177487e-06
1.939699015e-06
1.946039545e-06
1.937181603e-06
2.077296416e-06
1.363432783e-06
1.189453468e-05
6.936632979e-05
0.0004943740548
0.0004863074887
9.542486175e-07
1.252763535e-06
1.393161279e-06
1.481617619e-06
1.544928006e-06
1.593507167e-06
1.632499458e-06
1.664806895e-06
1.692218954e-06
1.715912542e-06
1.736700586e-06
1.755166724e-06
1.771743294e-06
1.786758918e-06
1.800468808e-06
1.813074757e-06
1.824738726e-06
1.835592298e-06
1.84574342e-06
1.855281268e-06
1.864279864e-06
1.872800817e-06
1.880895426e-06
1.888606359e-06
1.895969063e-06
1.903012993e-06
1.909762767e-06
1.916239317e-06
1.922461053e-06
1.928445083e-06
1.934210318e-06
1.939727639e-06
1.946063135e-06
1.936716399e-06
2.088202927e-06
1.28327327e-06
3.493563524e-06
7.774238202e-05
0.0005320031173
0.0005192783444
9.542922644e-07
1.252855353e-06
1.393206375e-06
1.481640605e-06
1.544930995e-06
1.593492099e-06
1.632468071e-06
1.664760772e-06
1.692159613e-06
1.715841515e-06
1.736619478e-06
1.755077264e-06
1.771647371e-06
1.786658606e-06
1.800366378e-06
1.812972673e-06
1.824639622e-06
1.835498938e-06
1.845658625e-06
1.855207823e-06
1.864220413e-06
1.872757723e-06
1.880870613e-06
1.888601149e-06
1.895984006e-06
1.903047722e-06
1.909815883e-06
1.916308322e-06
1.922542378e-06
1.928534229e-06
1.934301907e-06
1.939821231e-06
1.946080157e-06
1.937260768e-06
2.090961293e-06
1.18823653e-06
3.985328172e-06
1.023929781e-05
0.0005719378589
0.000554012579
9.543431372e-07
1.252959654e-06
1.393263683e-06
1.481676357e-06
1.544947101e-06
1.593490401e-06
1.632450249e-06
1.664728368e-06
1.692114126e-06
1.715784478e-06
1.736552523e-06
1.755002175e-06
1.771566128e-06
1.786573412e-06
1.800279678e-06
1.812887155e-06
1.824558193e-06
1.835424689e-06
1.845594744e-06
1.85515751e-06
1.864186752e-06
1.872743529e-06
1.880878246e-06
1.888632321e-06
1.896039581e-06
1.903127529e-06
1.909918558e-06
1.916431209e-06
1.922681523e-06
1.928684496e-06
1.934456975e-06
1.939981017e-06
1.94612563e-06
1.938345891e-06
2.089784852e-06
1.126871361e-06
4.972869255e-06
1.750257441e-05
0.0006129336985
0.0005906061798
9.544018476e-07
1.253077299e-06
1.393334283e-06
1.48172614e-06
1.544977745e-06
1.59350364e-06
1.632447687e-06
1.664711497e-06
1.692084417e-06
1.715743459e-06
1.736501846e-06
1.754943679e-06
1.771501882e-06
1.786505757e-06
1.800211244e-06
1.81282087e-06
1.824497266e-06
1.835372563e-06
1.845555021e-06
1.85513385e-06
1.864182737e-06
1.872762475e-06
1.880923002e-06
1.888705033e-06
1.896141448e-06
1.903258563e-06
1.910077374e-06
1.916614869e-06
1.92288549e-06
1.928902694e-06
1.934681844e-06
1.940209415e-06
1.946240883e-06
1.939641237e-06
2.086253826e-06
1.134460958e-06
5.462556522e-06
2.716248198e-05
0.0006549613146
0.0006291575054
9.544690497e-07
1.253209184e-06
1.393419317e-06
1.481791297e-06
1.545024443e-06
1.59353349e-06
1.632462205e-06
1.664712116e-06
1.692072571e-06
1.715720664e-06
1.736469776e-06
1.754904223e-06
1.771457204e-06
1.78645834e-06
1.80016392e-06
1.812776828e-06
1.824460047e-06
1.835346e-06
1.84554318e-06
1.855140917e-06
1.864212849e-06
1.872819526e-06
1.881010401e-06
1.888825419e-06
1.896296394e-06
1.903448266e-06
1.910300373e-06
1.916867822e-06
1.923163068e-06
1.929197552e-06
1.934985173e-06
1.940502843e-06
1.946641221e-06
1.938551298e-06
2.099287235e-06
1.062564532e-06
6.60945836e-06
3.858064893e-05
0.0006980096826
0.0006697409899
9.545454408e-07
1.253356234e-06
1.393519985e-06
1.481873244e-06
1.545088803e-06
1.593581733e-06
1.632495751e-06
1.664732329e-06
1.692080844e-06
1.715718498e-06
1.736458858e-06
1.7548865e-06
1.771434941e-06
1.786434174e-06
1.8001409e-06
1.812758435e-06
1.824450183e-06
1.835348946e-06
1.845563529e-06
1.855183443e-06
1.864282334e-06
1.872920534e-06
1.881146988e-06
1.889000805e-06
1.896512583e-06
1.903705662e-06
1.910597401e-06
1.917200622e-06
1.923525301e-06
1.929580276e-06
1.935377268e-06
1.940885201e-06
1.947091471e-06
1.937958749e-06
2.108308296e-06
1.019923976e-06
7.935367908e-06
5.020786057e-05
0.0007419229569
0.0007124065207
9.546317624e-07
1.253519385e-06
1.393637538e-06
1.481973464e-06
1.545172515e-06
1.593650256e-06
1.632550398e-06
1.664774391e-06
1.692111665e-06
1.715739564e-06
1.736471875e-06
1.754893472e-06
1.771438244e-06
1.786436617e-06
1.800145777e-06
1.812769554e-06
1.824471849e-06
1.835385947e-06
1.845621057e-06
1.855266955e-06
1.864397355e-06
1.873072398e-06
1.881340508e-06
1.889239879e-06
1.896799735e-06
1.904041553e-06
1.910980345e-06
1.91762616e-06
1.923985876e-06
1.930064987e-06
1.935872167e-06
1.941369376e-06
1.947628035e-06
1.93726603e-06
2.12243281e-06
8.907260405e-07
4.584021111e-07
6.249744541e-05
0.0007866191189
0.0007571945559
9.547287905e-07
1.253699555e-06
1.393773265e-06
1.482093494e-06
1.545277345e-06
1.593741041e-06
1.632628337e-06
1.664840697e-06
1.692167638e-06
1.715786675e-06
1.736511854e-06
1.754928395e-06
1.771470614e-06
1.786469443e-06
1.800182627e-06
1.812814588e-06
1.824529839e-06
1.835462256e-06
1.845721554e-06
1.855397884e-06
1.864565109e-06
1.873283209e-06
1.881600068e-06
1.889552879e-06
1.897169323e-06
1.904468732e-06
1.911463349e-06
1.918159882e-06
1.924561369e-06
1.93066907e-06
1.936487643e-06
1.94197036e-06
1.948295428e-06
1.936295194e-06
2.140575451e-06
7.104462082e-07
1.37298767e-06
7.844742905e-05
0.0008321392086
0.000804105772
9.548373153e-07
1.253897638e-06
1.39392849e-06
1.482234928e-06
1.545405135e-06
1.593856174e-06
1.632731895e-06
1.664933816e-06
1.692251578e-06
1.715862905e-06
1.736582143e-06
1.754994906e-06
1.771535996e-06
1.786536911e-06
1.800256048e-06
1.812898533e-06
1.824629618e-06
1.835583887e-06
1.845871684e-06
1.855583657e-06
1.864793951e-06
1.87356246e-06
1.881936521e-06
1.889952211e-06
1.897635438e-06
1.905003023e-06
1.912063928e-06
1.91882084e-06
1.925272121e-06
1.931413862e-06
1.937245435e-06
1.942712078e-06
1.949070456e-06
1.935654213e-06
2.156750285e-06
5.482471385e-07
2.42222036e-06
9.358899771e-05
0.0008782684405
0.000853102327
9.549584386e-07
1.254114868e-06
1.39410474e-06
1.48239952e-06
1.545557891e-06
1.593997919e-06
1.632863603e-06
1.665056555e-06
1.692366572e-06
1.715971623e-06
1.736686399e-06
1.755096962e-06
1.771638669e-06
1.786643665e-06
1.80037109e-06
1.813026906e-06
1.824777248e-06
1.835757584e-06
1.846079053e-06
1.855832947e-06
1.865093844e-06
1.873921692e-06
1.882363312e-06
1.890453541e-06
1.898216214e-06
1.905665133e-06
1.912805251e-06
1.919634306e-06
1.926144927e-06
1.932327013e-06
1.938173437e-06
1.943621044e-06
1.949987722e-06
1.935319702e-06
2.171148407e-06
3.869453473e-07
4.050180107e-06
0.0001110722476
0.0009246744223
0.0009040669265
9.550961783e-07
1.254352592e-06
1.39430401e-06
1.482589185e-06
1.545737652e-06
1.594168512e-06
1.633025926e-06
1.66521163e-06
1.69251561e-06
1.716116117e-06
1.736828232e-06
1.755238522e-06
1.771782974e-06
1.786794496e-06
1.800533099e-06
1.813205698e-06
1.824979468e-06
1.835991012e-06
1.846352538e-06
1.856156182e-06
1.865477051e-06
1.874375212e-06
1.882897031e-06
1.891076081e-06
1.898933894e-06
1.906480743e-06
1.9137167e-06
1.920633272e-06
1.927215733e-06
1.933446053e-06
1.939309239e-06
1.944732015e-06
1.951110624e-06
1.934821488e-06
2.189627842e-06
1.994449788e-07
6.247992286e-06
0.0001341307901
0.0009709451929
0.0009571216738
9.552645034e-07
1.254598729e-06
1.394527056e-06
1.48280486e-06
1.545945766e-06
1.594369636e-06
1.633220861e-06
1.665401358e-06
1.692701352e-06
1.716299428e-06
1.737011108e-06
1.755423535e-06
1.77197341e-06
1.786994525e-06
1.800747943e-06
1.813441745e-06
1.825244347e-06
1.836293624e-06
1.846703005e-06
1.856565768e-06
1.865957865e-06
1.87493965e-06
1.883557094e-06
1.891842446e-06
1.899814697e-06
1.907480099e-06
1.914833002e-06
1.921857362e-06
1.928529131e-06
1.934819644e-06
1.940703233e-06
1.946095776e-06
1.952449105e-06
1.934791488e-06
2.204506246e-06
1.121946549e-07
8.309808172e-06
0.0001590707763
0.001017390282
0.001012577398
9.554581408e-07
1.254856931e-06
1.394774266e-06
1.483047446e-06
1.546183605e-06
1.594603085e-06
1.633450595e-06
1.665628321e-06
1.692926794e-06
1.716525002e-06
1.737239008e-06
1.755656649e-06
1.772215469e-06
1.787250227e-06
1.801023122e-06
1.813743549e-06
1.825581466e-06
1.836676322e-06
1.847143002e-06
1.857076257e-06
1.866553226e-06
1.875634878e-06
1.884367014e-06
1.892780531e-06
1.900891563e-06
1.90870165e-06
1.916198296e-06
1.923356283e-06
1.930140204e-06
1.93650809e-06
1.942419899e-06
1.947776333e-06
1.954086266e-06
1.934932638e-06
2.210311958e-06
1.591815322e-06
9.689145904e-06
1.89314775e-05
0.001066174239
0.001070291241
9.55672789e-07
1.255132914e-06
1.395046807e-06
1.483318567e-06
1.546453215e-06
1.59487137e-06
1.633718128e-06
1.665896029e-06
1.693195991e-06
1.716797473e-06
1.737517131e-06
1.755943556e-06
1.772515271e-06
1.787568299e-06
1.801366271e-06
1.814120103e-06
1.826001366e-06
1.837151263e-06
1.847686733e-06
1.857704624e-06
1.8672835e-06
1.876485339e-06
1.885356069e-06
1.8939253e-06
1.902206082e-06
1.910194534e-06
1.917869951e-06
1.92519578e-06
1.932122217e-06
1.938590398e-06
1.944542205e-06
1.949857877e-06
1.956108114e-06
1.935264416e-06
2.231609568e-06
5.977892889e-08
1.030662619e-05
2.978143716e-05
0.001117240227
0.001130014967
9.55907249e-07
1.25543661e-06
1.395348417e-06
1.483621459e-06
1.546757504e-06
1.595177403e-06
1.634026585e-06
1.666207956e-06
1.693512868e-06
1.717121312e-06
1.737850612e-06
1.756290189e-06
1.772879612e-06
1.787956206e-06
1.801785264e-06
1.814579885e-06
1.826514145e-06
1.837731475e-06
1.848350825e-06
1.858471139e-06
1.868173109e-06
1.877520549e-06
1.886559921e-06
1.895319803e-06
1.903810033e-06
1.912020566e-06
1.919920951e-06
1.927460757e-06
1.934571913e-06
1.94117343e-06
1.947183016e-06
1.952455031e-06
1.958590618e-06
1.9375128e-06
2.16974502e-06
1.944931203e-06
1.108360781e-05
4.214933039e-05
0.001169001546
0.001191694857
9.561570403e-07
1.255762192e-06
1.395677437e-06
1.483955898e-06
1.547097007e-06
1.595522224e-06
1.634377474e-06
1.666566113e-06
1.693880004e-06
1.717499774e-06
1.738243548e-06
1.756701756e-06
1.7733152e-06
1.788422647e-06
1.802291116e-06
1.815135868e-06
1.827133698e-06
1.838431571e-06
1.849152347e-06
1.859397639e-06
1.869250264e-06
1.878775932e-06
1.888022331e-06
1.897017759e-06
1.905768903e-06
1.914258927e-06
1.922445933e-06
1.930262518e-06
1.937617516e-06
1.944401166e-06
1.950498046e-06
1.955727621e-06
1.961701678e-06
1.939170037e-06
2.182477951e-06
2.32009454e-06
1.222429926e-05
5.76878416e-05
0.00122144975
0.001255347802
9.564234734e-07
1.256110718e-06
1.396034399e-06
1.48432262e-06
1.547472805e-06
1.5959073e-06
1.634772698e-06
1.666972921e-06
1.694300442e-06
1.717936623e-06
1.738700515e-06
1.757183719e-06
1.77382851e-06
1.788975506e-06
1.802893962e-06
1.81580164e-06
1.827877994e-06
1.83927336e-06
1.850115126e-06
1.860510294e-06
1.870546591e-06
1.880292218e-06
1.889795836e-06
1.899085554e-06
1.908165351e-06
1.917011314e-06
1.92556841e-06
1.933748696e-06
1.941431913e-06
1.948470784e-06
1.954704579e-06
1.95990533e-06
1.965575389e-06
1.94390839e-06
2.207041168e-06
2.703232059e-07
1.381612817e-05
7.414533302e-05
0.001274292081
0.001321008569
9.567067465e-07
1.256482239e-06
1.396419493e-06
1.484722031e-06
1.547885616e-06
1.596333716e-06
1.635213766e-06
1.6674304e-06
1.694776829e-06
1.718435292e-06
1.739225925e-06
1.7577417e-06
1.77442662e-06
1.789623456e-06
1.803604118e-06
1.816589579e-06
1.828763127e-06
1.840279287e-06
1.851269691e-06
1.861846748e-06
1.872105012e-06
1.88211958e-06
1.891943374e-06
1.901604415e-06
1.91110334e-06
1.920408646e-06
1.929450667e-06
1.93811704e-06
1.946251273e-06
1.953657334e-06
1.960112872e-06
1.965322982e-06
1.970633295e-06
1.949064155e-06
2.223116084e-06
7.150922762e-10
1.632502149e-05
9.396969917e-05
0.001327544448
0.001388718936
9.570066807e-07
1.256876441e-06
1.396832553e-06
1.485154151e-06
1.548335727e-06
1.596802108e-06
1.635701748e-06
1.667940152e-06
1.695311434e-06
1.718998879e-06
1.739823917e-06
1.758381152e-06
1.775116639e-06
1.790375725e-06
1.804433507e-06
1.81751484e-06
1.829807686e-06
1.841472043e-06
1.852645742e-06
1.863447893e-06
1.873980266e-06
1.884326223e-06
1.894547181e-06
1.904676714e-06
1.914714355e-06
1.924619993e-06
1.934307185e-06
1.94363498e-06
1.95240254e-06
1.960351346e-06
1.967176671e-06
1.972501844e-06
1.97699362e-06
1.967774848e-06
2.035948684e-06
1.319349794e-06
2.210495056e-05
0.0001118957726
0.001380650399
0.001458481975
9.57322784e-07
1.25729259e-06
1.397272962e-06
1.4856185e-06
1.548822878e-06
1.597312525e-06
1.636237106e-06
1.668503178e-06
1.695905941e-06
1.719629951e-06
1.740498193e-06
1.759107227e-06
1.775905576e-06
1.791241693e-06
1.805394545e-06
1.818593751e-06
1.831033066e-06
1.842879409e-06
1.854278671e-06
1.865359067e-06
1.876232474e-06
1.886993247e-06
1.897713764e-06
1.908437569e-06
1.919169952e-06
1.929866724e-06
1.940423972e-06
1.950667665e-06
1.960343705e-06
1.969115468e-06
1.976572311e-06
1.982206733e-06
1.986706742e-06
1.970800077e-06
2.136779644e-06
8.798344411e-07
1.640250314e-05
0.0001299251872
0.00143337632
0.001530437565
9.576542433e-07
1.25772951e-06
1.397739578e-06
1.486114013e-06
1.549346159e-06
1.597864313e-06
1.636819559e-06
1.669119704e-06
1.696561267e-06
1.720330335e-06
1.741251782e-06
1.759924537e-06
1.776800123e-06
1.79223077e-06
1.806500187e-06
1.819843883e-06
1.83246285e-06
1.844532784e-06
1.85621009e-06
1.867635273e-06
1.878934086e-06
1.890216469e-06
1.901571813e-06
1.913059441e-06
1.924696875e-06
1.936444702e-06
1.948188113e-06
1.959719587e-06
1.970723722e-06
1.980769245e-06
1.98931355e-06
1.995698481e-06
2.000340858e-06
1.981472612e-06
2.213399867e-06
7.040459668e-07
2.478155596e-05
0.0001564854476
0.00148578357
0.001604859289
9.579998944e-07
1.25818553e-06
1.398230672e-06
1.486638953e-06
1.549903913e-06
1.598455999e-06
1.637447937e-06
1.669789018e-06
1.697277348e-06
1.721100878e-06
1.74208678e-06
1.760836877e-06
1.77780636e-06
1.793352107e-06
1.807763682e-06
1.821283935e-06
1.834122966e-06
1.846467673e-06
1.858488138e-06
1.870341393e-06
1.88217269e-06
1.894114237e-06
1.906280772e-06
1.918758871e-06
1.931589946e-06
1.944751344e-06
1.958131284e-06
1.971498543e-06
1.984475925e-06
1.996523546e-06
2.006940936e-06
2.014894528e-06
2.020147466e-06
2.011609821e-06
2.169474145e-06
2.575682531e-07
3.941513781e-06
0.0001860666518
0.00153639817
0.001681647216
9.583581871e-07
1.258658445e-06
1.39874386e-06
1.487190832e-06
1.550493643e-06
1.599085174e-06
1.638120042e-06
1.670509291e-06
1.698052936e-06
1.721941194e-06
1.743004047e-06
1.761846876e-06
1.778929396e-06
1.794614236e-06
1.809198258e-06
1.822933522e-06
1.836041664e-06
1.84872395e-06
1.861168331e-06
1.873553997e-06
1.886053457e-06
1.898831595e-06
1.912041122e-06
1.925812513e-06
1.940233283e-06
1.955320758e-06
1.970991258e-06
1.987015977e-06
2.00297377e-06
2.018216414e-06
2.031869172e-06
2.042938271e-06
2.049951975e-06
2.072222878e-06
1.836613679e-06
2.95609724e-06
8.914536112e-07
0.0002146830853
0.001584561434
0.001760550046
9.587271508e-07
1.259145465e-06
1.399276051e-06
1.487766345e-06
1.551111923e-06
1.599748389e-06
1.638832514e-06
1.671277405e-06
1.698885369e-06
1.722849379e-06
1.74400287e-06
1.762955611e-06
1.780172928e-06
1.796024621e-06
1.810816704e-06
1.824812868e-06
1.83824943e-06
1.851346142e-06
1.864314377e-06
1.877363111e-06
1.890702744e-06
1.904545968e-06
1.919103915e-06
1.934576587e-06
1.951133167e-06
1.968877146e-06
1.987804777e-06
2.007749827e-06
2.028309876e-06
2.048784038e-06
2.068169429e-06
2.085367092e-06
2.09939528e-06
2.128845219e-06
1.966529596e-06