/*--------------------------------*- C++ -*----------------------------------*\
| =========                 |                                                 |
| \\      /  F ield         | OpenFOAM: The Open Source CFD Toolbox           |
|  \\    /   O peration     | Version:  v1912                                 |
|   \\  /    A nd           | Website:  www.openfoam.com                      |
|    \\/     M anipulation  |                                                 |
\*---------------------------------------------------------------------------*/
FoamFile
{
    version     2.0;
    format      ascii;
    class       volScalarField;
    location    "0.5";
    object      nut.gas;
}
// * * * * * * * * * * * * * * * * * * * * * * * * * * * * * * * * * * * * * //

dimensions      [0 2 -1 0 0 0 0];


internalField   nonuniform List<scalar> 
4800
(
1.378536259e-08
2.673713019e-08
3.604335917e-08
4.374637308e-08
5.051645116e-08
5.667420015e-08
6.240877129e-08
6.784684453e-08
7.308152903e-08
7.818656212e-08
8.322411083e-08
8.824945284e-08
9.331400853e-08
9.846744149e-08
1.037592177e-07
1.092398401e-07
1.149618954e-07
1.209810013e-07
1.273567212e-07
1.341535019e-07
1.414416872e-07
1.492986679e-07
1.57810241e-07
1.670722763e-07
1.771928245e-07
1.882948566e-07
2.005199171e-07
2.140331112e-07
2.290300692e-07
2.457468899e-07
2.644748753e-07
2.855806931e-07
3.095559687e-07
3.369670329e-07
3.689618251e-07
4.074660829e-07
4.41603859e-07
5.57216494e-07
2.805421635e-07
8.993365651e-07
2.268641328e-08
4.505649344e-08
6.137843746e-08
7.491802529e-08
8.676400109e-08
9.74333985e-08
1.07223018e-07
1.163223739e-07
1.248613889e-07
1.329338228e-07
1.406100227e-07
1.479444098e-07
1.549801398e-07
1.617521456e-07
1.682891991e-07
1.746153578e-07
1.807510067e-07
1.867136305e-07
1.925183986e-07
1.981786202e-07
2.037061082e-07
2.091114796e-07
2.144044126e-07
2.195938788e-07
2.246883627e-07
2.296960872e-07
2.346252576e-07
2.394843466e-07
2.442824471e-07
2.490296953e-07
2.537382925e-07
2.584177188e-07
2.631343506e-07
2.675177217e-07
2.739827413e-07
2.717819787e-07
2.97141791e-07
2.289263312e-07
4.477496577e-07
1.503136469e-06
2.211344564e-08
4.38785594e-08
5.975009762e-08
7.291449161e-08
8.443225341e-08
9.480630406e-08
1.04325042e-07
1.131724568e-07
1.21474588e-07
1.29322331e-07
1.367838416e-07
1.439118148e-07
1.507480151e-07
1.57326229e-07
1.636742676e-07
1.698153658e-07
1.757691908e-07
1.815525841e-07
1.871801218e-07
1.926645466e-07
1.980171078e-07
2.03247837e-07
2.083657789e-07
2.133791917e-07
2.182957338e-07
2.231226476e-07
2.278669607e-07
2.32535725e-07
2.371363301e-07
2.416769321e-07
2.461672971e-07
2.506176186e-07
2.550634152e-07
2.593651025e-07
2.647239605e-07
2.643034652e-07
2.902418369e-07
2.136959562e-07
3.511555086e-07
1.759885887e-06
2.215249401e-08
4.395980877e-08
5.986240325e-08
7.305254807e-08
8.459277628e-08
9.498705479e-08
1.045244129e-07
1.133892597e-07
1.217079329e-07
1.295715509e-07
1.370484421e-07
1.4419144e-07
1.510424225e-07
1.576352715e-07
1.639978796e-07
1.701535538e-07
1.761220252e-07
1.819201945e-07
1.875626941e-07
1.930623211e-07
1.9843038e-07
2.036769602e-07
2.088111677e-07
2.138413282e-07
2.187751745e-07
2.236200308e-07
2.283830112e-07
2.33071251e-07
2.376921985e-07
2.422540015e-07
2.467661539e-07
2.512394345e-07
2.556930033e-07
2.601324782e-07
2.6462338e-07
2.683334479e-07
2.801319229e-07
2.653516098e-07
5.766300603e-07
1.960256842e-06
2.214942483e-08
4.395320026e-08
5.985287357e-08
7.304057392e-08
8.457861726e-08
9.497088622e-08
1.045063595e-07
1.133694121e-07
1.21686357e-07
1.295482942e-07
1.370235375e-07
1.441649086e-07
1.510142749e-07
1.576055093e-07
1.639664952e-07
1.701205303e-07
1.760873356e-07
1.818838e-07
1.875245411e-07
1.93022338e-07
1.983884712e-07
2.036329981e-07
2.087649817e-07
2.137926885e-07
2.187237673e-07
2.235654223e-07
2.28324591e-07
2.330081431e-07
2.376231157e-07
2.421770127e-07
2.466781354e-07
2.511368312e-07
2.555573623e-07
2.600179534e-07
2.641584746e-07
2.690091697e-07
2.786943189e-07
2.877920039e-07
5.660003487e-07
2.12259248e-06
2.214934518e-08
4.395299956e-08
5.985224942e-08
7.303959385e-08
8.457728389e-08
9.496920382e-08
1.045043344e-07
1.133670515e-07
1.216836695e-07
1.295452888e-07
1.370202245e-07
1.441612988e-07
1.510103794e-07
1.576013392e-07
1.639620608e-07
1.701158402e-07
1.76082395e-07
1.818786089e-07
1.875190916e-07
1.930166103e-07
1.983824284e-07
2.036265789e-07
2.087580901e-07
2.137851784e-07
2.187154206e-07
2.23555916e-07
2.283134469e-07
2.329946497e-07
2.376062053e-07
2.421550677e-07
2.46648622e-07
2.510964754e-07
2.554943689e-07
2.59962194e-07
2.639266836e-07
2.69230635e-07
2.758774359e-07
1.947078571e-07
6.385836876e-07
2.271656708e-06
2.214907949e-08
4.395241328e-08
5.985102394e-08
7.303783399e-08
8.45750061e-08
9.496642165e-08
1.045010607e-07
1.133632984e-07
1.216794486e-07
1.295406117e-07
1.370151026e-07
1.441557434e-07
1.510044016e-07
1.575949492e-07
1.639552672e-07
1.701086485e-07
1.760748067e-07
1.818706183e-07
1.875106831e-07
1.930077538e-07
1.983730733e-07
2.036166459e-07
2.087474591e-07
2.137736728e-07
2.187027834e-07
2.235417758e-07
2.282972684e-07
2.329756599e-07
2.375832841e-07
2.421265798e-07
2.466122648e-07
2.510480015e-07
2.554348884e-07
2.598661114e-07
2.635939509e-07
2.712423538e-07
2.65552214e-07
2.400604227e-07
8.118370274e-07
2.406523263e-06
2.214885492e-08
4.39519401e-08
5.984990174e-08
7.303617246e-08
8.457281603e-08
9.496371323e-08
1.04497845e-07
1.133595867e-07
1.216752525e-07
1.295359433e-07
1.370099745e-07
1.441501686e-07
1.509983931e-07
1.575885193e-07
1.63948427e-07
1.701014062e-07
1.760671657e-07
1.818625751e-07
1.875022232e-07
1.929988474e-07
1.983636688e-07
2.03606661e-07
2.087367693e-07
2.137620944e-07
2.186900513e-07
2.235275114e-07
2.282809344e-07
2.329564973e-07
2.375602241e-07
2.420981206e-07
2.465763824e-07
2.510010562e-07
2.553810249e-07
2.597437311e-07
2.635771645e-07
2.724097345e-07
2.491686094e-07
3.140953005e-07
1.157024214e-06
2.543179766e-06
2.214865604e-08
4.395154632e-08
5.984883517e-08
7.303455014e-08
8.457064445e-08
9.496099999e-08
1.044945998e-07
1.133558204e-07
1.216709768e-07
1.29531171e-07
1.370047193e-07
1.441444449e-07
1.509922158e-07
1.575819029e-07
1.639413848e-07
1.700939489e-07
1.760592992e-07
1.81854298e-07
1.87493523e-07
1.929896953e-07
1.983540137e-07
2.035964202e-07
2.087258168e-07
2.137502453e-07
2.186770402e-07
2.235129637e-07
2.282643277e-07
2.329371087e-07
2.375370627e-07
2.42069852e-07
2.465411216e-07
2.509577927e-07
2.553112891e-07
2.597819462e-07
2.627863464e-07
2.754183554e-07
2.374081672e-07
5.099238167e-07
1.434716239e-06
2.672398485e-06
2.214848519e-08
4.395123806e-08
5.98478334e-08
7.303297911e-08
8.456850614e-08
9.495829936e-08
1.044913452e-07
1.13352022e-07
1.216666465e-07
1.295263222e-07
1.369993669e-07
1.441386049e-07
1.509859052e-07
1.575751389e-07
1.639341835e-07
1.700863241e-07
1.760512603e-07
1.818458468e-07
1.874846504e-07
1.92980376e-07
1.983441996e-07
2.035860317e-07
2.087147317e-07
2.137382836e-07
2.186639451e-07
2.234983765e-07
2.282477542e-07
2.329178787e-07
2.375142805e-07
2.420423417e-07
2.465073078e-07
2.509164699e-07
2.552478768e-07
2.598608819e-07
2.6115699e-07
2.871913984e-07
1.493216916e-07
2.150414667e-07
1.911351951e-06
2.806067055e-06
2.214834365e-08
4.395101915e-08
5.984690217e-08
7.303146718e-08
8.456641085e-08
9.495562294e-08
1.044880945e-07
1.133482067e-07
1.216622785e-07
1.295214156e-07
1.369939377e-07
1.441326712e-07
1.509794862e-07
1.575682545e-07
1.639268533e-07
1.700785657e-07
1.760430871e-07
1.818372653e-07
1.874756562e-07
1.929709491e-07
1.983342972e-07
2.035755808e-07
2.087036175e-07
2.137263365e-07
2.186509235e-07
2.234839444e-07
2.282314545e-07
2.328991018e-07
2.374922275e-07
2.420159832e-07
2.464752694e-07
2.508780463e-07
2.551880636e-07
2.599232796e-07
2.601266802e-07
2.90924357e-07
1.068856966e-07
6.728094902e-07
2.187683339e-06
2.940355005e-06
2.214823307e-08
4.395089418e-08
5.984604835e-08
7.303002362e-08
8.456437009e-08
9.495298439e-08
1.044848636e-07
1.133443923e-07
1.216578925e-07
1.295164728e-07
1.369884557e-07
1.441266697e-07
1.509729871e-07
1.575612809e-07
1.639194285e-07
1.700707116e-07
1.760348222e-07
1.818286018e-07
1.874665959e-07
1.929614786e-07
1.983243819e-07
2.035651563e-07
2.086925803e-07
2.137145313e-07
2.186381284e-07
2.234698509e-07
2.282156475e-07
2.328810345e-07
2.37471193e-07
2.419910747e-07
2.464453066e-07
2.508423796e-07
2.55135306e-07
2.599298602e-07
2.602246552e-07
2.801771796e-07
2.899149957e-07
9.272474389e-07
2.449010654e-06
3.07500195e-06
2.214815535e-08
4.395086835e-08
5.984527963e-08
7.302865873e-08
8.456239664e-08
9.495039889e-08
1.044816697e-07
1.133405983e-07
1.216535104e-07
1.29511518e-07
1.369829469e-07
1.44120629e-07
1.509664388e-07
1.575542517e-07
1.639119459e-07
1.700628027e-07
1.760265112e-07
1.818199073e-07
1.874575273e-07
1.929520311e-07
1.983145304e-07
2.035548479e-07
2.086817251e-07
2.137029917e-07
2.186257044e-07
2.234562651e-07
2.282005286e-07
2.328638967e-07
2.374514107e-07
2.419678511e-07
2.4641767e-07
2.508086879e-07
2.551056435e-07
2.596745556e-07
2.626223192e-07
2.694826647e-07
2.109572558e-07
3.636885272e-07
2.690086562e-06
3.20936324e-06
2.21481127e-08
4.39509475e-08
5.98446046e-08
7.3027384e-08
8.456050471e-08
9.494788322e-08
1.044785323e-07
1.133368466e-07
1.216491562e-07
1.295065774e-07
1.369774401e-07
1.441145799e-07
1.50959875e-07
1.575472034e-07
1.639044454e-07
1.700548824e-07
1.76018202e-07
1.818112354e-07
1.874485108e-07
1.929426751e-07
1.98304821e-07
2.035447456e-07
2.08671156e-07
2.136918374e-07
2.186137888e-07
2.23443344e-07
2.281862739e-07
2.328478793e-07
2.374330776e-07
2.419465092e-07
2.463924782e-07
2.50778262e-07
2.550742726e-07
2.595617457e-07
2.631444914e-07
2.678463466e-07
1.776110451e-07
5.153860681e-07
2.915691157e-06
3.343287214e-06
2.214810763e-08
4.395113813e-08
5.984403279e-08
7.302621213e-08
8.455870996e-08
9.49454559e-08
1.044754726e-07
1.133331609e-07
1.216448562e-07
1.295016799e-07
1.369719665e-07
1.441085563e-07
1.50953332e-07
1.575401754e-07
1.638969694e-07
1.700469972e-07
1.760099456e-07
1.818026426e-07
1.874396093e-07
1.92933481e-07
1.982953336e-07
2.0353494e-07
2.08660976e-07
2.136811849e-07
2.186025137e-07
2.234312347e-07
2.281730435e-07
2.328331504e-07
2.374163675e-07
2.419272152e-07
2.463698968e-07
2.507505539e-07
2.550546664e-07
2.593688407e-07
2.644618631e-07
2.583258351e-07
2.286830012e-07
6.66073314e-07
3.129513394e-06
3.477014381e-06
2.214814297e-08
4.395144744e-08
5.98435747e-08
7.302515711e-08
8.455702966e-08
9.494313731e-08
1.044725139e-07
1.133295674e-07
1.216406394e-07
1.294968569e-07
1.369665601e-07
1.44102595e-07
1.509468494e-07
1.5753321e-07
1.638895639e-07
1.700391967e-07
1.760017961e-07
1.81794188e-07
1.874308882e-07
1.92924522e-07
1.982861499e-07
2.035255233e-07
2.086512885e-07
2.136711491e-07
2.18592007e-07
2.234200771e-07
2.281609866e-07
2.328198659e-07
2.374014371e-07
2.419101134e-07
2.463500468e-07
2.507258409e-07
2.550394069e-07
2.592791964e-07
2.639129033e-07
2.567437616e-07
3.922029002e-07
8.071271885e-07
3.333472807e-06
3.610901964e-06
2.214822191e-08
4.395188337e-08
5.98432419e-08
7.302423432e-08
8.455548272e-08
9.494094976e-08
1.044696817e-07
1.133260947e-07
1.216365372e-07
1.294921428e-07
1.369612583e-07
1.440967358e-07
1.509404699e-07
1.575263531e-07
1.638822778e-07
1.700315337e-07
1.759938107e-07
1.817859343e-07
1.874224164e-07
1.929158741e-07
1.982773545e-07
2.035165895e-07
2.086421972e-07
2.136618461e-07
2.185823957e-07
2.234100077e-07
2.281502473e-07
2.328081739e-07
2.373884307e-07
2.418953392e-07
2.463329535e-07
2.507055434e-07
2.550182029e-07
2.592113484e-07
2.639779222e-07
2.640403019e-07
4.144565091e-07
9.381239868e-07
3.529231338e-06
3.745419873e-06
2.2148348e-08
4.395245459e-08
5.984304709e-08
7.302346058e-08
8.455408988e-08
9.493891769e-08
1.044670041e-07
1.133227742e-07
1.216325844e-07
1.294875754e-07
1.369561014e-07
1.440910223e-07
1.509342399e-07
1.575196542e-07
1.638751642e-07
1.700240653e-07
1.75986051e-07
1.817779482e-07
1.874142668e-07
1.929076175e-07
1.98269036e-07
2.035082361e-07
2.086338096e-07
2.136533942e-07
2.18573808e-07
2.234011636e-07
2.281409688e-07
2.327982193e-07
2.373774878e-07
2.418830148e-07
2.463188158e-07
2.50687903e-07
2.550153773e-07
2.589753806e-07
2.655711046e-07
2.615083433e-07
4.967441116e-07
1.062544592e-06
3.718185659e-06
3.881087308e-06
2.214852517e-08
4.395317058e-08
5.98430041e-08
7.302285427e-08
8.455287375e-08
9.49370678e-08
1.044645116e-07
1.133196402e-07
1.216288184e-07
1.294831954e-07
1.369511338e-07
1.440855018e-07
1.509282101e-07
1.575131674e-07
1.638682808e-07
1.700168529e-07
1.759785831e-07
1.817703013e-07
1.874065172e-07
1.928998374e-07
1.982612879e-07
2.035005656e-07
2.086262395e-07
2.136459172e-07
2.185663776e-07
2.233936867e-07
2.281332987e-07
2.327901501e-07
2.373687499e-07
2.418732679e-07
2.463076971e-07
2.506737834e-07
2.550185356e-07
2.586981433e-07
2.681497941e-07
2.340974098e-07
4.837990321e-07
1.214314524e-06
3.901714028e-06
4.018335292e-06
2.214875777e-08
4.395404164e-08
5.984312801e-08
7.30224354e-08
8.4551859e-08
9.493542918e-08
1.044622375e-07
1.133167299e-07
1.216252806e-07
1.29479048e-07
1.369464038e-07
1.440802262e-07
1.509224357e-07
1.575069513e-07
1.6386169e-07
1.700099635e-07
1.759714787e-07
1.817630709e-07
1.873992517e-07
1.928926257e-07
1.982542107e-07
2.034936888e-07
2.086196085e-07
2.136395476e-07
2.185602475e-07
2.23387729e-07
2.281273944e-07
2.32784124e-07
2.37362367e-07
2.418662324e-07
2.462996766e-07
2.506638398e-07
2.550164444e-07
2.585501813e-07
2.69356053e-07
2.261530509e-07
5.521475267e-07
1.343415956e-06
4.080509962e-06
4.157628381e-06
2.214905058e-08
4.395507888e-08
5.984343519e-08
7.302222569e-08
8.455107241e-08
9.493403351e-08
1.044602182e-07
1.133140841e-07
1.21622016e-07
1.294751819e-07
1.369419643e-07
1.44075252e-07
1.509169771e-07
1.575010703e-07
1.638554604e-07
1.700034702e-07
1.759648162e-07
1.817563416e-07
1.873925623e-07
1.928860826e-07
1.982479142e-07
2.034877268e-07
2.086140492e-07
2.136344303e-07
2.185555745e-07
2.233834573e-07
2.281234296e-07
2.327803154e-07
2.373585061e-07
2.41862055e-07
2.462948832e-07
2.506577565e-07
2.550160388e-07
2.584321291e-07
2.703698459e-07
2.240620641e-07
5.753526395e-07
1.493492397e-06
4.254375922e-06
4.299444724e-06
2.214940881e-08
4.395629426e-08
5.984394332e-08
7.302224868e-08
8.455054305e-08
9.493291517e-08
1.044584931e-07
1.133117473e-07
1.216190735e-07
1.29471651e-07
1.369378732e-07
1.440706415e-07
1.509119008e-07
1.574955952e-07
1.638496674e-07
1.699974534e-07
1.759586822e-07
1.817502068e-07
1.873865502e-07
1.928803188e-07
1.982425203e-07
2.034828139e-07
2.086097094e-07
2.136307273e-07
2.185525345e-07
2.2338106e-07
2.281216012e-07
2.327789236e-07
2.373573595e-07
2.418609071e-07
2.462934526e-07
2.506554977e-07
2.550188577e-07
2.583225723e-07
2.714648278e-07
2.230929405e-07
6.68151497e-07
1.635478266e-06
4.423978269e-06
4.444355716e-06
2.214983814e-08
4.395770057e-08
5.984467145e-08
7.302252973e-08
8.455030234e-08
9.493211144e-08
1.044571052e-07
1.133097678e-07
1.216165069e-07
1.294685136e-07
1.36934194e-07
1.440664629e-07
1.509072797e-07
1.57490604e-07
1.638443943e-07
1.699920025e-07
1.759531725e-07
1.817447702e-07
1.873813285e-07
1.928754581e-07
1.982381655e-07
2.03479101e-07
2.086067559e-07
2.136286225e-07
2.185513284e-07
2.233807537e-07
2.281221379e-07
2.327801831e-07
2.373591566e-07
2.418629975e-07
2.462955428e-07
2.506573471e-07
2.550204034e-07
2.58291553e-07
2.721765361e-07
2.164355199e-07
3.621058487e-07
1.731407684e-06
4.589255513e-06
4.592545192e-06
2.21503447e-08
4.395931143e-08
5.984564002e-08
7.302309616e-08
8.455038415e-08
9.493166259e-08
1.044561011e-07
1.133081982e-07
1.216143746e-07
1.29465834e-07
1.369309964e-07
1.440627913e-07
1.509031945e-07
1.57486183e-07
1.638397336e-07
1.699872168e-07
1.759483943e-07
1.817401483e-07
1.873770242e-07
1.928716404e-07
1.982350046e-07
2.034767599e-07
2.086053799e-07
2.136283278e-07
2.185521896e-07
2.23382792e-07
2.281253102e-07
2.327843743e-07
2.37364177e-07
2.418685877e-07
2.463013741e-07
2.506633942e-07
2.550215187e-07
2.583278505e-07
2.723562396e-07
2.082669762e-07
3.867526177e-07
6.283556236e-07
4.758384941e-06
4.743655545e-06
2.21509351e-08
4.39611412e-08
5.984687085e-08
7.302397718e-08
8.455082485e-08
9.493161203e-08
1.044555309e-07
1.133070955e-07
1.2161274e-07
1.294636822e-07
1.369283567e-07
1.440597095e-07
1.508997345e-07
1.574824282e-07
1.638357885e-07
1.699832075e-07
1.759444682e-07
1.817364724e-07
1.873737815e-07
1.92869025e-07
1.982332149e-07
2.034759888e-07
2.086058032e-07
2.136300908e-07
2.185553927e-07
2.233874759e-07
2.281314424e-07
2.32791838e-07
2.373727666e-07
2.418780105e-07
2.463112466e-07
2.506737178e-07
2.550244982e-07
2.584001894e-07
2.722796107e-07
2.028178302e-07
4.320208806e-07
8.215261372e-07
4.925971551e-06
4.897814429e-06
2.215161644e-08
4.396320499e-08
5.984838712e-08
7.302520395e-08
8.455166338e-08
9.493200638e-08
1.044554489e-07
1.133065213e-07
1.216116724e-07
1.294621346e-07
1.369263588e-07
1.440573087e-07
1.508969983e-07
1.574794464e-07
1.638326746e-07
1.699800999e-07
1.759415306e-07
1.817338918e-07
1.87371765e-07
1.928677952e-07
1.982330014e-07
2.03477018e-07
2.086082851e-07
2.136342031e-07
2.185612637e-07
2.233951661e-07
2.281409271e-07
2.328029925e-07
2.37385357e-07
2.418916923e-07
2.463255623e-07
2.506884735e-07
2.550320496e-07
2.58486516e-07
2.720494835e-07
2.034996838e-07
4.52792463e-07
1.023422933e-06
5.092053692e-06
5.055138092e-06
2.215239631e-08
4.396551848e-08
5.985021334e-08
7.302680953e-08
8.45529412e-08
9.493289552e-08
1.044559134e-07
1.133065424e-07
1.216112467e-07
1.294612747e-07
1.369250944e-07
1.440556893e-07
1.508950954e-07
1.574773565e-07
1.638305211e-07
1.699780352e-07
1.75939736e-07
1.817325767e-07
1.87371164e-07
1.928681625e-07
1.982346024e-07
2.034801173e-07
2.086131316e-07
2.136410115e-07
2.185701935e-07
2.23406299e-07
2.281542443e-07
2.328183545e-07
2.374024902e-07
2.419101797e-07
2.463448716e-07
2.507074292e-07
2.55058278e-07
2.584138804e-07
2.728979448e-07
1.969457526e-07
4.980628539e-07
1.219706064e-06
5.256732449e-06
5.215629976e-06
2.215328277e-08
4.396809783e-08
5.985237524e-08
7.302882879e-08
8.455470226e-08
9.493433252e-08
1.044569866e-07
1.133072303e-07
1.21611544e-07
1.294611929e-07
1.369246639e-07
1.440549618e-07
1.508941472e-07
1.574762914e-07
1.638294736e-07
1.699771728e-07
1.759392604e-07
1.817327225e-07
1.873721969e-07
1.928703731e-07
1.982382968e-07
2.034856045e-07
2.086207056e-07
2.136509301e-07
2.185826524e-07
2.234214037e-07
2.281719812e-07
2.328385643e-07
2.374248469e-07
2.419341742e-07
2.463698293e-07
2.507321278e-07
2.550877733e-07
2.583743832e-07
2.734836651e-07
1.929535895e-07
5.457386983e-07
1.391413706e-06
5.419566562e-06
5.379194848e-06
2.215428444e-08
4.397095942e-08
5.985489968e-08
7.303129824e-08
8.455699279e-08
9.493637357e-08
1.044587349e-07
1.133086617e-07
1.216126515e-07
1.294619877e-07
1.369251771e-07
1.44055248e-07
1.508942879e-07
1.57476399e-07
1.638296956e-07
1.699776941e-07
1.75940305e-07
1.817345544e-07
1.873751172e-07
1.928747141e-07
1.982444121e-07
2.03493854e-07
2.086314361e-07
2.136644495e-07
2.185991996e-07
2.234411131e-07
2.281948465e-07
2.32864403e-07
2.374532701e-07
2.419645593e-07
2.464013271e-07
2.507633998e-07
2.551229184e-07
2.583282014e-07
2.743982315e-07
1.803188115e-07
1.311669807e-07
1.552392557e-06
5.580426581e-06
5.545708964e-06
2.215541028e-08
4.397411931e-08
5.985781425e-08
7.303425571e-08
8.455986105e-08
9.493907764e-08
1.044612284e-07
1.133109181e-07
1.216146629e-07
1.294637651e-07
1.369267533e-07
1.440566814e-07
1.508956665e-07
1.574778458e-07
1.638313724e-07
1.699798055e-07
1.759431011e-07
1.817383323e-07
1.873802186e-07
1.928815197e-07
1.982533306e-07
2.035053051e-07
2.086458275e-07
2.136821483e-07
2.186204954e-07
2.234661767e-07
2.28223683e-07
2.328968066e-07
2.374887803e-07
2.42002422e-07
2.464404935e-07
2.508022109e-07
2.551666261e-07
2.582634644e-07
2.755685194e-07
1.610402967e-07
2.270045363e-07
1.739241047e-06
5.739620031e-06
5.714916938e-06
2.215666946e-08
4.397759311e-08
5.986114736e-08
7.303774039e-08
8.456335742e-08
9.49425068e-08
1.044645413e-07
1.13314087e-07
1.216176792e-07
1.29466641e-07
1.369295245e-07
1.440594112e-07
1.508984512e-07
1.574808195e-07
1.638347133e-07
1.69983741e-07
1.75947912e-07
1.817443538e-07
1.873878391e-07
1.928911757e-07
1.982654963e-07
2.035204729e-07
2.086644809e-07
2.137047265e-07
2.186473501e-07
2.234975207e-07
2.28259534e-07
2.329369289e-07
2.375326293e-07
2.420490961e-07
2.464887076e-07
2.508501021e-07
2.552173734e-07
2.582207137e-07
2.766076994e-07
1.41467653e-07
3.015143889e-07
1.899690352e-06
5.896560901e-06
5.88645592e-06
2.215807472e-08
4.398140236e-08
5.98649317e-08
7.304179546e-08
8.456753666e-08
9.494672843e-08
1.044687547e-07
1.133182637e-07
1.216218113e-07
1.294707425e-07
1.369336347e-07
1.440635998e-07
1.509028239e-07
1.574855245e-07
1.63839948e-07
1.699897593e-07
1.759550298e-07
1.817529527e-07
1.873983646e-07
1.929041323e-07
1.98281438e-07
2.035399832e-07
2.086881403e-07
2.137330684e-07
2.186808063e-07
2.235363572e-07
2.283037787e-07
2.329862994e-07
2.375864649e-07
2.421063083e-07
2.465477385e-07
2.509087797e-07
2.552774212e-07
2.581984004e-07
2.775294582e-07
1.188485195e-07
3.898866684e-07
2.069537018e-06
6.050337096e-06
6.05973488e-06
2.215967267e-08
4.398557061e-08
5.986921002e-08
7.304646795e-08
8.457245447e-08
9.495180899e-08
1.044739472e-07
1.133235405e-07
1.216271665e-07
1.294761934e-07
1.369392262e-07
1.440694095e-07
1.509089695e-07
1.574921719e-07
1.638473195e-07
1.699981408e-07
1.759647791e-07
1.817645078e-07
1.87412245e-07
1.929209309e-07
1.983018067e-07
2.035646117e-07
2.087177236e-07
2.137682574e-07
2.18722142e-07
2.23584188e-07
2.283581655e-07
2.330469138e-07
2.376524967e-07
2.421764019e-07
2.466199685e-07
2.50980479e-07
2.553509115e-07
2.58165164e-07
2.787080328e-07
8.532582873e-08
4.842520408e-07
2.274231446e-06
6.199868923e-06
6.235006468e-06
2.216162528e-08
4.398988598e-08
5.987399845e-08
7.305178087e-08
8.457814757e-08
9.495779848e-08
1.044801825e-07
1.133299961e-07
1.216338402e-07
1.294831084e-07
1.369464354e-07
1.440770022e-07
1.509170794e-07
1.575009872e-07
1.638570946e-07
1.700092058e-07
1.759775484e-07
1.817794866e-07
1.874300311e-07
1.92942215e-07
1.983273605e-07
2.035952595e-07
2.087543042e-07
2.138115682e-07
2.187728622e-07
2.236427805e-07
2.284247583e-07
2.331211666e-07
2.377334631e-07
2.422624122e-07
2.46708589e-07
2.510684648e-07
2.55438483e-07
2.581631626e-07
2.796533328e-07
6.399632644e-08
5.584659724e-07
2.476655604e-06
6.346421934e-06
6.413091665e-06
2.216387131e-08
4.39944124e-08
5.987930518e-08
7.305775623e-08
8.458465336e-08
9.49647501e-08
1.044875305e-07
1.133377183e-07
1.216419398e-07
1.294916171e-07
1.36955419e-07
1.440865683e-07
1.50927387e-07
1.575122552e-07
1.638696139e-07
1.700233522e-07
1.75993799e-07
1.817984278e-07
1.874523584e-07
1.929687393e-07
1.983589976e-07
2.036330026e-07
2.08799181e-07
2.138645717e-07
2.188348566e-07
2.237143795e-07
2.285061782e-07
2.332120584e-07
2.378327424e-07
2.423680959e-07
2.46817679e-07
2.511768469e-07
2.555455554e-07
2.581725793e-07
2.800213333e-07
2.410545325e-07
6.030370078e-07
8.544028213e-07
6.496796182e-06
6.593322494e-06
2.216636078e-08
4.399925001e-08
5.988515516e-08
7.306443388e-08
8.459202762e-08
9.497273849e-08
1.044960869e-07
1.13346826e-07
1.216516108e-07
1.295018941e-07
1.369663815e-07
1.440983411e-07
1.509401525e-07
1.575262706e-07
1.638852242e-07
1.700410007e-07
1.760140379e-07
1.818219316e-07
1.874799459e-07
1.930013833e-07
1.98397797e-07
2.036791636e-07
2.088539704e-07
2.139292354e-07
2.189105087e-07
2.238018511e-07
2.286058287e-07
2.333235537e-07
2.379548233e-07
2.424983689e-07
2.469524798e-07
2.513110245e-07
2.556777247e-07
2.581947125e-07
2.813671814e-07
4.67135665e-08
6.219557392e-07
1.071626007e-06
6.650563308e-06
6.774783649e-06
2.21690797e-08
4.400457279e-08
5.989162842e-08
7.307189335e-08
8.460034963e-08
9.498184999e-08
1.045059512e-07
1.133574372e-07
1.216629936e-07
1.295141074e-07
1.369795248e-07
1.441125633e-07
1.509556645e-07
1.575433615e-07
1.639042827e-07
1.700625475e-07
1.760387504e-07
1.81850641e-07
1.875136347e-07
1.930411968e-07
1.984450516e-07
2.037353382e-07
2.089206393e-07
2.140079793e-07
2.190027826e-07
2.239087961e-07
2.287280334e-07
2.33460765e-07
2.381056244e-07
2.426598709e-07
2.471201114e-07
2.514783383e-07
2.55839914e-07
2.583446538e-07
2.774397489e-07
2.664532879e-07
6.449733829e-07
1.274869581e-06
6.802878156e-06
6.95722206e-06
2.217197605e-08
4.401027845e-08
5.989868914e-08
7.308012885e-08
8.460963371e-08
9.499211531e-08
1.045171713e-07
1.133696198e-07
1.216761805e-07
1.295283794e-07
1.369950097e-07
1.441294479e-07
1.509742079e-07
1.575639101e-07
1.639272892e-07
1.700885989e-07
1.76068604e-07
1.818852763e-07
1.875542872e-07
1.93089309e-07
1.985022532e-07
2.038034395e-07
2.090015984e-07
2.141038193e-07
2.191154219e-07
2.240398204e-07
2.288783897e-07
2.336303829e-07
2.382929759e-07
2.428615315e-07
2.473303799e-07
2.516890066e-07
2.560430238e-07
2.584551168e-07
2.782526217e-07
2.910193073e-07
6.773501073e-07
1.491463275e-06
6.953812115e-06
7.140610861e-06
2.217506494e-08
4.401638535e-08
5.990634859e-08
7.308915823e-08
8.461990914e-08
9.50035777e-08
1.045298077e-07
1.133834557e-07
1.216912802e-07
1.295448513e-07
1.370130159e-07
1.44149218e-07
1.509960572e-07
1.575882622e-07
1.639547028e-07
1.701197893e-07
1.761044617e-07
1.819269127e-07
1.876031068e-07
1.931470722e-07
1.985710721e-07
2.038856638e-07
2.090997377e-07
2.142204766e-07
2.192531442e-07
2.242008286e-07
2.290641888e-07
2.338412635e-07
2.385274126e-07
2.431155525e-07
2.475969382e-07
2.519576847e-07
2.562956991e-07
2.587706911e-07
2.798140708e-07
9.933690534e-08
7.20102625e-07
1.690878216e-06
7.102637369e-06
7.324975058e-06
2.21783486e-08
4.402289426e-08
5.991461054e-08
7.309899122e-08
8.46311952e-08
9.501626901e-08
1.04543908e-07
1.133990129e-07
1.21708387e-07
1.295636515e-07
1.37033716e-07
1.441721029e-07
1.510215119e-07
1.576167981e-07
1.639869903e-07
1.701566957e-07
1.761470951e-07
1.819766553e-07
1.876616346e-07
1.932164311e-07
1.986537733e-07
2.039847128e-07
2.09218513e-07
2.143624958e-07
2.194218705e-07
2.243994053e-07
2.292949877e-07
2.341052385e-07
2.388232862e-07
2.434389068e-07
2.479392282e-07
2.523056804e-07
2.56625243e-07
2.591136284e-07
2.808312306e-07
5.109165903e-09
7.827590512e-07
1.903550212e-06
7.249527226e-06
7.510355793e-06
2.218182486e-08
4.402979946e-08
5.992347124e-08
7.310962797e-08
8.46434993e-08
9.503020768e-08
1.045595059e-07
1.134163453e-07
1.217275815e-07
1.29584896e-07
1.370572719e-07
1.441983249e-07
1.510508728e-07
1.576499218e-07
1.640246908e-07
1.70200024e-07
1.761973941e-07
1.820356188e-07
1.877313661e-07
1.932994941e-07
1.987532424e-07
2.041042561e-07
2.093624331e-07
2.145355916e-07
2.196290706e-07
2.246453181e-07
2.295833795e-07
2.344382578e-07
2.392003975e-07
2.438556097e-07
2.483855847e-07
2.527660669e-07
2.570390453e-07
2.603543817e-07
2.687495504e-07
2.194567475e-07
9.108481724e-07
2.077194952e-06
7.39310733e-06
7.696687716e-06
2.218548794e-08
4.403708796e-08
5.993291716e-08
7.312105632e-08
8.465681389e-08
9.504539465e-08
1.045766154e-07
1.134354859e-07
1.217489232e-07
1.296086801e-07
1.370838279e-07
1.442280931e-07
1.510844358e-07
1.576880432e-07
1.640683646e-07
1.702505334e-07
1.762563818e-07
1.821051668e-07
1.878140815e-07
1.933985938e-07
1.988726404e-07
2.042486469e-07
2.095373262e-07
2.147472915e-07
2.198844639e-07
2.249513139e-07
2.299460945e-07
2.348620106e-07
2.396863635e-07
2.444001031e-07
2.489780484e-07
2.533871201e-07
2.57669698e-07
2.605544374e-07
2.75324083e-07
1.792129715e-07
7.846144139e-07
2.238293814e-06
7.532953083e-06
7.884263701e-06
2.218932831e-08
4.404473892e-08
5.994292357e-08
7.31332497e-08
8.467111363e-08
9.506180986e-08
1.045952269e-07
1.134564417e-07
1.217724438e-07
1.296350714e-07
1.371135015e-07
1.442615946e-07
1.511224826e-07
1.577315728e-07
1.641185955e-07
1.703090399e-07
1.763251843e-07
1.821868381e-07
1.879118697e-07
1.935165552e-07
1.990157686e-07
2.044230136e-07
2.097502126e-07
2.150071727e-07
2.202008534e-07
2.253343627e-07
2.304056723e-07
2.354063094e-07
2.403200951e-07
2.451222504e-07
2.497792315e-07
2.542479883e-07
2.585523375e-07
2.612589791e-07
2.802168665e-07
1.603132686e-07
9.644184337e-07
2.456446994e-06
7.669427134e-06
8.073685222e-06
2.21933324e-08
4.405272294e-08
5.995345308e-08
7.314616498e-08
8.468635278e-08
9.507940884e-08
1.046153021e-07
1.134791873e-07
1.217981398e-07
1.296641003e-07
1.371463732e-07
1.442989821e-07
1.511652683e-07
1.577809087e-07
1.64175979e-07
1.703764098e-07
1.76405037e-07
1.822823688e-07
1.880271425e-07
1.936567029e-07
1.991872104e-07
2.046336729e-07
2.100097596e-07
2.153272116e-07
2.205948125e-07
2.258171466e-07
2.309928967e-07
2.36112708e-07
2.411571442e-07
2.460951253e-07
2.508834426e-07
2.55467831e-07
2.598292275e-07
2.632382908e-07
2.774224303e-07
9.696502815e-08
3.84620778e-07
2.678580422e-06
7.798966241e-06
8.264579833e-06
2.219748217e-08
4.406100121e-08
5.996445432e-08
7.315974062e-08
8.470246258e-08
9.509811929e-08
1.0463677e-07
1.135036596e-07
1.218259651e-07
1.296957502e-07
1.371824745e-07
1.443403605e-07
1.512130062e-07
1.578364206e-07
1.642411082e-07
1.704535497e-07
1.764972826e-07
1.823937041e-07
1.88162674e-07
1.938229494e-07
1.993924522e-07
2.048883381e-07
2.103268213e-07
2.157226359e-07
2.210878123e-07
2.264299553e-07
2.317501751e-07
2.370400945e-07
2.422784832e-07
2.474284646e-07
2.524367471e-07
2.572395162e-07
2.617389217e-07
2.671747555e-07
2.552544016e-07
3.284946642e-07
1.82915535e-07
2.877195239e-06
7.920264598e-06
8.456244283e-06
2.220175473e-08
4.406952479e-08
5.99758608e-08
7.317389492e-08
8.471934902e-08
9.511783804e-08
1.046595226e-07
1.135297516e-07
1.218558227e-07
1.297299477e-07
1.372217748e-07
1.443857703e-07
1.512658485e-07
1.578984302e-07
1.643145539e-07
1.705413912e-07
1.766033661e-07
1.8252301e-07
1.883216383e-07
1.940198796e-07
1.996380609e-07
2.051964035e-07
2.107149211e-07
2.162129389e-07
2.217079585e-07
2.272135275e-07
2.327365472e-07
2.382736022e-07
2.438059879e-07
2.492951813e-07
2.546817127e-07
2.59897032e-07
2.648765882e-07
2.708003566e-07