/*--------------------------------*- C++ -*----------------------------------*\
| =========                 |                                                 |
| \\      /  F ield         | OpenFOAM: The Open Source CFD Toolbox           |
|  \\    /   O peration     | Version:  v1912                                 |
|   \\  /    A nd           | Website:  www.openfoam.com                      |
|    \\/     M anipulation  |                                                 |
\*---------------------------------------------------------------------------*/
FoamFile
{
    version     2.0;
    format      ascii;
    class       surfaceScalarField;
    location    "0.5";
    object      phi;
}
// * * * * * * * * * * * * * * * * * * * * * * * * * * * * * * * * * * * * * //

dimensions      [0 3 -1 0 0 0 0];
oriented        oriented;


internalField   nonuniform List<scalar> 
9440
(
1.080256371e-10
-1.08025637e-10
4.354601307e-10
-3.274342542e-10
9.833390936e-10
-5.478784705e-10
1.753651621e-09
-7.703118036e-10
2.749237402e-09
-9.955848242e-10
3.973713376e-09
-1.224474785e-09
5.431422687e-09
-1.457707893e-09
7.127369982e-09
-1.695945648e-09
9.067149975e-09
-1.939778124e-09
1.125687285e-08
-2.189720791e-09
1.370308575e-08
-2.446210604e-09
1.641269386e-08
-2.709605622e-09
1.939288467e-08
-2.98018812e-09
2.265105902e-08
-3.258171471e-09
2.619477369e-08
-3.543711599e-09
3.003170078e-08
-3.836923831e-09
3.416961019e-08
-4.137905978e-09
3.861638253e-08
-4.446768722e-09
4.338006069e-08
-4.763674389e-09
4.84689504e-08
-5.08888577e-09
5.389178158e-08
-5.422827091e-09
5.965794538e-08
-5.766159574e-09
6.577782564e-08
-6.119875893e-09
7.226324997e-08
-6.485419833e-09
7.912809421e-08
-6.864839622e-09
8.638908995e-08
-7.260990995e-09
9.406690933e-08
-7.677814523e-09
1.021876447e-07
-8.120730375e-09
1.107848777e-07
-8.597227948e-09
1.199026759e-07
-9.117792921e-09
1.296001295e-07
-9.697448282e-09
1.399585842e-07
-1.035844929e-08
1.510941747e-07
-1.113558483e-08
1.631786399e-07
-1.208445954e-08
1.76500406e-07
-1.332176023e-08
1.912478277e-07
-1.474741566e-08
2.10010665e-07
-1.876283163e-08
2.144902748e-07
-4.479602949e-09
3.728461672e-07
-1.583689021e-07
3.82933629e-07
1.135399543e-10
-2.215653524e-10
4.546059725e-10
-6.684995898e-10
1.024964728e-09
-1.118236115e-09
1.826819041e-09
-1.572164591e-09
2.863219744e-09
-2.031983585e-09
4.138042095e-09
-2.499294783e-09
5.655936617e-09
-2.975599652e-09
7.422265396e-09
-3.462271267e-09
9.443032331e-09
-3.960541511e-09
1.172480943e-08
-4.471493968e-09
1.427465571e-08
-4.996052608e-09
1.710003749e-08
-5.534982767e-09
2.020875152e-08
-6.088897165e-09
2.360885518e-08
-6.658269809e-09
2.730860836e-08
-7.243459128e-09
3.131643263e-08
-7.844742117e-09
3.564089408e-08
-8.462361134e-09
4.029071742e-08
-9.096585471e-09
4.527483993e-08
-9.747790012e-09
5.060251568e-08
-1.041655437e-08
5.628348232e-08
-1.110378632e-08
6.232820557e-08
-1.181087517e-08
6.874822048e-08
-1.253988292e-08
7.555659415e-08
-1.329378539e-08
8.276854407e-08
-1.407678121e-08
9.040225905e-08
-1.489469743e-08
9.847999266e-08
-1.575553935e-08
1.070295358e-07
-1.667026451e-08
1.160862381e-07
-1.765392109e-08
1.256958606e-07
-1.872740592e-08
1.359187439e-07
-1.992032191e-08
1.468361467e-07
-2.127584229e-08
1.585600923e-07
-2.285952025e-08
1.712483424e-07
-2.477269935e-08
1.851438691e-07
-2.721727663e-08
2.005533119e-07
-3.015684694e-08
2.202250806e-07
-3.84345902e-08
2.296410771e-07
-1.389559142e-08
3.019375681e-07
-2.30692297e-07
6.964507226e-07
1.134215372e-10
-3.349866983e-10
4.540232106e-10
-1.009100691e-09
1.023348532e-09
-1.687560495e-09
1.823708792e-09
-2.372523549e-09
2.858221611e-09
-3.066494743e-09
4.130821649e-09
-3.771892804e-09
5.646216635e-09
-4.490992271e-09
7.409829992e-09
-5.225881913e-09
9.427730999e-09
-5.978439476e-09
1.170655564e-08
-6.750315242e-09
1.425342686e-08
-7.542920147e-09
1.707587237e-08
-8.357424286e-09
2.018174486e-08
-9.19476537e-09
2.357914877e-08
-1.005566912e-08
2.727637804e-08
-1.094068353e-08
3.128187065e-08
-1.185022956e-08
3.560418587e-08
-1.278467094e-08
4.025201198e-08
-1.37444059e-08
4.523421259e-08
-1.472998469e-08
5.055992154e-08
-1.574225717e-08
5.623869827e-08
-1.678255667e-08
6.228075729e-08
-1.78529276e-08
6.869728924e-08
-1.895640807e-08
7.55008952e-08
-2.009738435e-08
8.270616271e-08
-2.128204151e-08
9.033042118e-08
-2.251894852e-08
9.839472912e-08
-2.381983973e-08
1.069251665e-07
-2.520069414e-08
1.159545367e-07
-2.668328333e-08
1.255246271e-07
-2.829748824e-08
1.35689237e-07
-3.008492342e-08
1.465182559e-07
-3.210485276e-08
1.581031865e-07
-3.444444215e-08
1.705651896e-07
-3.723469344e-08
1.840654705e-07
-4.071754891e-08
1.987408621e-07
-4.483222842e-08
2.156885216e-07
-5.53822395e-08
2.28784726e-07
-2.699179987e-08
2.596029565e-07
-2.615609801e-07
9.692597919e-07
1.130595792e-10
-4.48046093e-10
4.525756027e-10
-1.348616161e-09
1.01998975e-09
-2.254973732e-09
1.817644272e-09
-3.170176812e-09
2.84871955e-09
-4.097568414e-09
4.11721946e-09
-5.040390761e-09
5.627927593e-09
-6.001698113e-09
7.386348133e-09
-6.984299831e-09
9.398634807e-09
-7.990723204e-09
1.167151103e-08
-9.0231882e-09
1.421218618e-08
-1.008359174e-08
1.702826978e-08
-1.1173504e-08
2.012768702e-08
-1.229417844e-08
2.351860003e-08
-1.344657766e-08
2.720933913e-08
-1.463141789e-08
3.120834974e-08
-1.584923518e-08
3.552416086e-08
-1.710047681e-08
4.01653823e-08
-1.838562184e-08
4.514073871e-08
-1.970533537e-08
5.045914971e-08
-2.106066221e-08
5.612986661e-08
-2.245326737e-08
6.21626782e-08
-2.38857328e-08
6.856820027e-08
-2.536192354e-08
7.535826564e-08
-2.688744293e-08
8.254643631e-08
-2.847020519e-08
9.014866231e-08
-3.012116735e-08
9.818411645e-08
-3.185528651e-08
1.066762366e-07
-3.369280675e-08
1.156540018e-07
-3.56610408e-08
1.251534406e-07
-3.779691916e-08
1.352192846e-07
-4.01507594e-08
1.459064618e-07
-4.279202177e-08
1.57280613e-07
-4.581858497e-08
1.694159431e-07
-4.937001468e-08
1.823827724e-07
-5.368437004e-08
1.962054377e-07
-5.865488428e-08
2.106939547e-07
-6.987074163e-08
2.256640493e-07
-4.196189953e-08
2.41690147e-07
-2.77666559e-07
1.22543922e-06
1.125486969e-10
-5.605946059e-10
4.505123728e-10
-1.686579287e-09
1.015301955e-09
-2.819762408e-09
1.80928791e-09
-3.964161514e-09
2.835717179e-09
-5.123996083e-09
4.098678396e-09
-6.30335004e-09
5.603052625e-09
-7.506070067e-09
7.354450908e-09
-8.735695508e-09
9.359140484e-09
-9.995409851e-09
1.162396211e-08
-1.128800658e-08
1.415624188e-08
-1.261586795e-08
1.696370015e-08
-1.398095842e-08
2.005436088e-08
-1.538483501e-08
2.34364653e-08
-1.682867764e-08
2.711839459e-08
-1.831334247e-08
3.110860646e-08
-1.983944208e-08
3.541559179e-08
-2.140745692e-08
4.004785798e-08
-2.301788257e-08
4.501394654e-08
-2.467141823e-08
5.032249339e-08
-2.636920314e-08
5.598234127e-08
-2.81131091e-08
6.200271455e-08
-2.990609972e-08
6.839346805e-08
-3.175267046e-08
7.516542157e-08
-3.365938968e-08
8.233079319e-08
-3.563556984e-08
8.990374266e-08
-3.769410966e-08
9.790103083e-08
-3.985256735e-08
1.063427875e-07
-4.213455596e-08
1.152533464e-07
-4.457159198e-08
1.246620266e-07
-4.720559156e-08
1.346035576e-07
-5.009228241e-08
1.451174619e-07
-5.330591785e-08
1.562449511e-07
-5.694606601e-08
1.680215646e-07
-6.114661913e-08
1.804510874e-07
-6.611388477e-08
1.935307711e-07
-7.17345608e-08
2.064365036e-07
-8.277645663e-08
2.217862462e-07
-5.731164558e-08
2.301238752e-07
-2.861065674e-07
1.470928083e-06
1.118843463e-10
-6.72478768e-10
4.478376681e-10
-2.022532058e-09
1.00927279e-09
-3.381196623e-09
1.798601043e-09
-4.753488514e-09
2.819146189e-09
-6.144539632e-09
4.075098393e-09
-7.559300305e-09
5.571458471e-09
-9.00242787e-09
7.313971001e-09
-1.047820543e-08
9.309046567e-09
-1.199048249e-08
1.156367476e-08
-1.354263152e-08
1.408533048e-08
-1.513752011e-08
1.688187628e-08
-1.677750035e-08
1.99614638e-08
-1.846441837e-08
2.333243812e-08
-2.019964753e-08
2.700324946e-08
-2.19841491e-08
3.098237711e-08
-2.381856476e-08
3.527827126e-08
-2.570334586e-08
3.989931921e-08
-2.763892506e-08
4.485384278e-08
-2.96259361e-08
5.015013453e-08
-3.166548897e-08
5.579654094e-08
-3.375950936e-08
6.180160075e-08
-3.591115316e-08
6.817424676e-08
-3.81253099e-08
7.492407813e-08
-4.040921427e-08
8.206170809e-08
-4.277319284e-08
8.959918705e-08
-4.523158148e-08
9.755048878e-08
-4.780386177e-08
1.059320247e-07
-5.051608437e-08
1.147631039e-07
-5.340266358e-08
1.240661642e-07
-5.650864403e-08
1.338664063e-07
-5.989251653e-08
1.44190177e-07
-6.362968033e-08
1.550611391e-07
-6.781701993e-08
1.66488977e-07
-7.25744479e-08
1.784392114e-07
-7.806411012e-08
1.909015774e-07
-8.419692185e-08
2.028298063e-07
-9.470466729e-08
2.187200665e-07
-7.320190688e-08
2.199942133e-07
-2.875002566e-07
1.706859107e-06
1.110652907e-10
-7.835438741e-10
4.445484622e-10
-2.356014678e-09
1.001883651e-09
-3.938530904e-09
1.78553875e-09
-5.53714236e-09
2.798929044e-09
-7.157928326e-09
4.046365058e-09
-8.80673438e-09
5.532991017e-09
-1.048905155e-08
7.264712972e-09
-1.220992478e-08
9.248116141e-09
-1.397388272e-08
1.149037243e-08
-1.578488455e-08
1.399914011e-08
-1.764628423e-08
1.678245824e-08
-1.956081461e-08
1.984863865e-08
-2.153059462e-08
2.320615912e-08
-2.355716355e-08
2.686356207e-08
-2.564154734e-08
3.082936336e-08
-2.778436108e-08
3.511197673e-08
-2.998595401e-08
3.971965971e-08
-3.224660259e-08
4.466048771e-08
-3.45667584e-08
4.994236263e-08
-3.694735795e-08
5.557306294e-08
-3.939020352e-08
6.156034192e-08
-4.189842577e-08
6.791207906e-08
-4.447704047e-08
7.463648777e-08
-4.713361621e-08
8.174237838e-08
-4.987907648e-08
8.923946781e-08
-5.272866377e-08
9.713871378e-08
-5.57031004e-08
1.054526249e-07
-5.8829988e-08
1.141954552e-07
-6.214548623e-08
1.233831106e-07
-6.569629162e-08
1.330324964e-07
-6.954189429e-08
1.431601663e-07
-7.375734189e-08
1.537779533e-07
-7.843479893e-08
1.648847428e-07
-8.368122849e-08
1.7644077e-07
-8.962012694e-08
1.884394242e-07
-9.619557245e-08
1.997262493e-07
-1.059914747e-07
2.164040469e-07
-8.987970313e-08
2.105679123e-07
-2.818002451e-07
1.933737586e-06
1.100887368e-10
-8.93632426e-10
4.406337817e-10
-2.686559171e-09
9.931045698e-10
-4.491000784e-09
1.770041449e-09
-6.314077983e-09
2.774968455e-09
-8.16285373e-09
4.012337371e-09
-1.004410135e-08
5.48746118e-09
-1.196417308e-08
7.206437049e-09
-1.392889804e-08
9.176058087e-09
-1.594350082e-08
1.140371444e-08
-1.801253765e-08
1.389728534e-08
-2.013985155e-08
1.666502424e-08
-2.232854964e-08
1.97154399e-08
-2.458100612e-08
2.305717672e-08
-2.689889593e-08
2.669889831e-08
-2.928326422e-08
3.064917899e-08
-3.17346368e-08
3.491640824e-08
-3.425317803e-08
3.950871374e-08
-3.683890262e-08
4.443390911e-08
-3.949194806e-08
4.969947221e-08
-4.221291511e-08
5.531255963e-08
-4.500328478e-08
6.128006239e-08
-4.786592217e-08
6.760870628e-08
-5.080567779e-08
7.43051964e-08
-5.383009955e-08
8.137640123e-08
-5.695027435e-08
8.882956418e-08
-6.018181957e-08
9.667251509e-08
-6.354604398e-08
1.04913835e-07
-6.707130046e-08
1.135628911e-07
-7.079453462e-08
1.226296317e-07
-7.476302432e-08
1.321240828e-07
-7.903633743e-08
1.42055086e-07
-8.368833666e-08
1.524272669e-07
-8.88069717e-08
1.63238556e-07
-9.449250934e-08
1.744692614e-07
-1.008508207e-07
1.861741374e-07
-1.079004452e-07
1.972158278e-07
-1.170331488e-07
2.141057483e-07
-1.067696201e-07
2.017015151e-07
-2.69550023e-07
2.151979452e-06
1.089506123e-10
-1.002582853e-09
4.360771125e-10
-3.01368512e-09
9.82895887e-10
-5.037818651e-09
1.752035402e-09
-7.083216242e-09
2.747147226e-09
-9.157963948e-09
3.972847117e-09
-1.126979929e-08
5.434644044e-09
-1.342596772e-08
7.138857958e-09
-1.563310933e-08
9.09252548e-09
-1.78971654e-08
1.130329383e-08
-2.022330274e-08
1.377930424e-08
-2.261585839e-08
1.652906667e-08
-2.50783082e-08
1.956132859e-08
-2.761326387e-08
2.28849407e-08
-3.022250361e-08
2.650872362e-08
-3.290704242e-08
3.044133984e-08
-3.566724804e-08
3.469117592e-08
-3.850300888e-08
3.926624024e-08
-4.141396146e-08
4.417408194e-08
-4.439978403e-08
4.942173655e-08
-4.746056378e-08
5.501570334e-08
-5.05972454e-08
6.096195781e-08
-5.381217027e-08
6.72660015e-08
-5.710971491e-08
7.393294752e-08
-6.04970388e-08
8.096763479e-08
-6.398495467e-08
8.8374759e-08
-6.758893663e-08
9.615899367e-08
-7.133027131e-08
1.043250506e-07
-7.523734987e-08
1.128776499e-07
-7.934712616e-08
1.218213313e-07
-8.370669788e-08
1.311602752e-07
-8.837527335e-08
1.408969438e-07
-9.342499672e-08
1.510310031e-07
-9.894102259e-08
1.615602102e-07
-1.05021709e-07
1.724797307e-07
-1.117703288e-07
1.839033844e-07
-1.193240954e-07
1.95009532e-07
-1.281392816e-07
2.13704957e-07
-1.254650398e-07
1.937237241e-07
-2.497396844e-07
2.362390807e-06
1.076456676e-10
-1.110228336e-09
4.308572918e-10
-3.336896194e-09
9.712088573e-10
-5.578169309e-09
1.731432536e-09
-7.843438662e-09
2.715327303e-09
-1.014185711e-08
3.927697268e-09
-1.24821673e-08
5.374276548e-09
-1.48725447e-08
7.061641795e-09
-1.732047195e-08
8.99711148e-09
-1.983263213e-08
1.1188632e-08
-2.241482001e-08
1.364465162e-08
-2.507187443e-08
1.637398369e-08
-2.78076364e-08
1.938566176e-08
-3.062493779e-08
2.268878921e-08
-3.352562661e-08
2.629238706e-08
-3.651063555e-08
3.020524452e-08
-3.958010051e-08
3.443577666e-08
-4.273353578e-08
3.899189466e-08
-4.597007396e-08
4.388089387e-08
-4.928877751e-08
4.910936508e-08
-5.268902904e-08
5.468313343e-08
-5.617100759e-08
6.060722789e-08
-5.973625836e-08
6.688588274e-08
-6.33883632e-08
7.35225688e-08
-6.713371809e-08
8.052004869e-08
-7.09824276e-08
8.788044571e-08
-7.494932649e-08
9.56052855e-08
-7.905510374e-08
1.036955039e-07
-8.332756078e-08
1.121514083e-07
-8.780302273e-08
1.209726342e-07
-9.252791587e-08
1.301578229e-07
-9.756045412e-08
1.397038485e-07
-1.029710138e-07
1.496062585e-07
-1.088434237e-07
1.59860859e-07
-1.152763028e-07
1.704632126e-07
-1.223726697e-07
1.815303513e-07
-1.303912297e-07
1.92346954e-07
-1.389558709e-07
2.117645022e-07
-1.448825813e-07
1.861001736e-07
-2.242616398e-07
2.565257402e-06
1.061675649e-10
-1.216395717e-09
4.24948926e-10
-3.655677005e-09
9.579859347e-10
-6.11120541e-09
1.70813019e-09
-8.593581658e-09
2.67934889e-09
-1.111307419e-08
3.876660407e-09
-1.367947686e-08
5.306055138e-09
-1.630193713e-08
6.974402785e-09
-1.898881697e-08
8.889344974e-09
-2.174757137e-08
1.105917304e-08
-2.458464481e-08
1.349269171e-08
-2.750538953e-08
1.619906993e-08
-3.051401076e-08
1.9187681e-08
-3.361354469e-08
2.246793457e-08
-3.680587573e-08
2.604910403e-08
-4.009180029e-08
2.994015344e-08
-4.347114492e-08
3.414956877e-08
-4.694294585e-08
3.868519847e-08
-5.050569815e-08
4.35541088e-08
-5.41576821e-08
4.876245921e-08
-5.789737349e-08
5.431540208e-08
-6.17239443e-08
6.02170098e-08
-6.563785971e-08
6.647023032e-08
-6.964157715e-08
7.307686984e-08
-7.374035083e-08
8.003759996e-08
-7.794315075e-08
8.735197135e-08
-8.226369071e-08
9.501838828e-08
-8.672151329e-08
1.030341191e-07
-9.134328401e-08
1.113952444e-07
-9.616414036e-08
1.200967659e-07
-1.012294293e-07
1.29131926e-07
-1.065956063e-07
1.384922307e-07
-1.123313101e-07
1.481685228e-07
-1.185197064e-07
1.581527897e-07
-1.252605633e-07
1.684382414e-07
-1.32658109e-07
1.791080486e-07
-1.410610316e-07
1.893822811e-07
-1.492300912e-07
2.073428421e-07
-1.628431346e-07
1.786969331e-07
-1.958201935e-07
2.76076509e-06
1.045089281e-10
-1.320904461e-09
4.183225543e-10
-3.969490081e-09
9.431608131e-10
-6.636042762e-09
1.682010747e-09
-9.332430332e-09
2.639029499e-09
-1.207009133e-08
3.819477077e-09
-1.485992248e-08
5.229633293e-09
-1.771209105e-08
6.876699793e-09
-2.063588084e-08
8.768685847e-09
-2.363955448e-08
1.091427744e-08
-2.673023314e-08
1.332269006e-08
-2.991379858e-08
1.600350624e-08
-3.319482306e-08
1.896649953e-08
-3.657653382e-08
2.222144754e-08
-4.006081929e-08
2.57779371e-08
-4.364828511e-08
2.964516575e-08
-4.733836856e-08
3.383174443e-08
-5.112951928e-08
3.834550637e-08
-5.501945458e-08
4.319332779e-08
-5.900549778e-08
4.8380966e-08
-6.308500573e-08
5.39129194e-08
-6.725589153e-08
5.979231287e-08
-7.151724679e-08
6.602080936e-08
-7.587006706e-08
7.259855057e-08
-8.031808526e-08
7.952412828e-08
-8.486872147e-08
8.679451615e-08
-8.95340714e-08
9.440505691e-08
-9.433204666e-08
1.023494419e-07
-9.928766136e-08
1.106197479e-07
-1.044344387e-07
1.192062403e-07
-1.098159137e-07
1.280968609e-07
-1.154862188e-07
1.372778484e-07
-1.215122896e-07
1.467343031e-07
-1.279761513e-07
1.564516906e-07
-1.349779446e-07
1.664149925e-07
-1.426213988e-07
1.766661685e-07
-1.513122014e-07
1.864198494e-07
-1.589837609e-07
2.033992117e-07
-1.798224886e-07
1.717727224e-07
-1.644147742e-07
2.949370216e-06
1.026613555e-10
-1.423565633e-09
4.109446807e-10
-4.277772858e-09
9.266583202e-10
-7.151755494e-09
1.652941177e-09
-1.005871193e-08
2.594162944e-09
-1.301131149e-08
3.755854071e-09
-1.602161165e-08
5.144618923e-09
-1.910085361e-08
6.768032618e-09
-2.225929191e-08
8.634519918e-09
-2.550603883e-08
1.075321538e-08
-2.884892534e-08
1.313380476e-08
-3.229438439e-08
1.578634843e-08
-3.584736286e-08
1.872108823e-08
-3.951126943e-08
2.194824002e-08
-4.328796661e-08
2.547777509e-08
-4.717781545e-08
2.931919429e-08
-5.117978276e-08
3.34813e-08
-5.529161973e-08
3.797197133e-08
-5.951012041e-08
4.279794823e-08
-6.383146896e-08
4.796463076e-08
-6.82516823e-08
5.347589865e-08
-7.276715322e-08
5.933395534e-08
-7.737529709e-08
6.553919882e-08
-8.207530394e-08
7.209012675e-08
-8.686900637e-08
7.898325831e-08
-9.176184602e-08
8.621301688e-08
-9.676382277e-08
9.377174279e-08
-1.018907652e-07
1.016496658e-07
-1.071655768e-07
1.098349329e-07
-1.12619698e-07
1.183129126e-07
-1.182938853e-07
1.270664707e-07
-1.242397688e-07
1.360764159e-07
-1.30522227e-07
1.453211809e-07
-1.372209062e-07
1.547774673e-07
-1.444342247e-07
1.64419037e-07
-1.522629571e-07
1.742570852e-07
-1.611502425e-07
1.835350705e-07
-1.682617355e-07
1.994453055e-07
-1.957326463e-07
1.652765093e-07
-1.304830954e-07
3.131485499e-06
1.006154194e-10
-1.524180869e-09
4.027777373e-10
-4.579934629e-09
9.083942286e-10
-7.65737108e-09
1.620772519e-09
-1.077108896e-08
2.544518325e-09
-1.393505568e-08
3.685462726e-09
-1.716255409e-08
5.050571746e-09
-2.046596033e-08
6.64783819e-09
-2.385655573e-08
8.486153663e-09
-2.734435136e-08
1.057515964e-08
-3.093792805e-08
1.292507717e-08
-3.464429833e-08
1.554651545e-08
-3.846879726e-08
1.845026062e-08
-4.241501042e-08
2.164704648e-08
-4.648474801e-08
2.51473105e-08
-5.067807473e-08
2.89609386e-08
-5.499340586e-08
3.309700428e-08
-5.942768014e-08
3.756350776e-08
-6.397661839e-08
4.236712151e-08
-6.863507696e-08
4.751294878e-08
-7.33975036e-08
5.30043018e-08
-7.825850005e-08
5.884250416e-08
-8.321349304e-08
6.502672415e-08
-8.82595173e-08
7.155385633e-08
-9.339613173e-08
7.841833649e-08
-9.862631915e-08
8.561210412e-08
-1.039575832e-07
9.312458001e-08
-1.094032337e-07
1.009426248e-07
-1.149836139e-07
1.090501149e-07
-1.207271804e-07
1.174279264e-07
-1.266716888e-07
1.260541944e-07
-1.328660285e-07
1.349038491e-07
-1.393718742e-07
1.439484569e-07
-1.462655038e-07
1.53155653e-07
-1.536414142e-07
1.624855348e-07
-1.61592828e-07
1.719196291e-07
-1.705843291e-07
1.807784447e-07
-1.771205408e-07
1.957183635e-07
-2.106721809e-07
1.592152041e-07
-9.423230257e-08
3.307534409e-06
9.836065123e-11
-1.622541338e-09
3.9378001e-10
-4.875353441e-09
8.882750233e-10
-8.151865188e-09
1.585339342e-09
-1.146815202e-08
2.489838997e-09
-1.483955373e-08
3.607937193e-09
-1.828065034e-08
4.947000651e-09
-2.18050215e-08
6.515486738e-09
-2.54250392e-08
8.322808816e-09
-2.915167049e-08
1.037917825e-08
-3.299429421e-08
1.269542217e-08
-3.696053866e-08
1.528277677e-08
-4.105614796e-08
1.815265702e-08
-4.528488648e-08
2.13164044e-08
-4.964849092e-08
2.478501564e-08
-5.414668124e-08
2.856885638e-08
-5.87772416e-08
3.267736486e-08
-6.353618338e-08
3.711875263e-08
-6.841800066e-08
4.18997088e-08
-7.341602739e-08
4.702511588e-08
-7.852290469e-08
5.249778482e-08
-8.373116279e-08
5.831821759e-08
-8.903391938e-08
6.448440526e-08
-9.442569834e-08
7.099165737e-08
-9.9903377e-08
7.783237027e-08
-1.05467025e-07
8.499606831e-08
-1.11121274e-07
9.246928218e-08
-1.168764401e-07
1.002353269e-07
-1.22749651e-07
1.082741427e-07
-1.287659885e-07
1.165623578e-07
-1.349598959e-07
1.250730766e-07
-1.413767388e-07
1.337755351e-07
-1.480743254e-07
1.426347076e-07
-1.551246662e-07
1.516103678e-07
-1.626170673e-07
1.606541951e-07
-1.706366449e-07
1.697230192e-07
-1.79653145e-07
1.78202222e-07
-1.855997337e-07
1.922912936e-07
-2.247603761e-07
1.536015552e-07
-5.580943645e-08
3.477955578e-06
9.588552277e-11
-1.718426678e-09
3.839055578e-10
-5.163372928e-09
8.66197662e-10
-8.634156388e-09
1.546459206e-09
-1.214841231e-08
2.429841556e-09
-1.572293448e-08
3.522872741e-09
-1.937367957e-08
4.833361037e-09
-2.311550752e-08
6.370277861e-09
-2.696195341e-08
8.143616837e-09
-3.092500652e-08
1.016422692e-08
-3.501490102e-08
1.244361817e-08
-3.923992631e-08
1.499373938e-08
-4.360626529e-08
1.782672804e-08
-4.811787095e-08
2.095463366e-08
-5.277639209e-08
2.438911769e-08
-5.758116055e-08
2.814113371e-08
-6.252925262e-08
3.222059331e-08
-6.761563773e-08
3.663602525e-08
-7.28334271e-08
4.139423563e-08
-7.817423202e-08
4.649997807e-08
-8.362864115e-08
5.195564384e-08
-8.918682235e-08
5.776098613e-08
-9.483925524e-08
6.391289543e-08
-1.00577601e-07
7.040506697e-08
-1.063955417e-07
7.722797688e-08
-1.122899279e-07
8.436875024e-08
-1.182620401e-07
9.181097907e-08
-1.243186616e-07
9.953456113e-08
-1.304732254e-07
1.075156601e-07
-1.367470797e-07
1.157266033e-07
-1.431708313e-07
1.241356012e-07
-1.497857279e-07
1.327063614e-07
-1.566450783e-07
1.413975711e-07
-1.638158659e-07
1.501622478e-07
-1.713817365e-07
1.589472863e-07
-1.794216733e-07
1.677024806e-07
-1.884083308e-07
1.758899686e-07
-1.937872118e-07
1.893217118e-07
-2.381906795e-07
1.484232618e-07
-1.519151261e-08
3.643177226e-06
9.317743128e-11
-1.811603927e-09
3.731041343e-10
-5.443299084e-09
8.420493625e-10
-9.103100712e-09
1.503932201e-09
-1.281029389e-08
2.364214938e-09
-1.658321562e-08
3.429824184e-09
-2.043928688e-08
4.709052292e-09
-2.439473335e-08
6.211436714e-09
-2.846433521e-08
7.947613365e-09
-3.266118022e-08
9.929141298e-09
-3.699642568e-08
1.216829657e-08
-4.1479078e-08
1.467783412e-08
-4.611579894e-08
1.747071711e-08
-5.091074977e-08
2.055981495e-08
-5.586548547e-08
2.395757234e-08
-6.097891321e-08
2.76756537e-08
-6.6247329e-08
3.172456856e-08
-7.166454734e-08
3.611328563e-08
-7.722213867e-08
4.084884534e-08
-8.290978599e-08
4.593598105e-08
-8.871577088e-08
5.137676787e-08
-9.462760295e-08
5.717030026e-08
-1.006327812e-07
6.331236554e-08
-1.067196596e-07
6.979517989e-08
-1.128783492e-07
7.660731923e-08
-1.191020602e-07
8.373350548e-08
-1.253882191e-07
9.115443193e-08
-1.317395806e-07
9.884667933e-08
-1.381654652e-07
1.067826683e-07
-1.446830608e-07
1.149304949e-07
-1.513186501e-07
1.232536304e-07
-1.581088545e-07
1.317104653e-07
-1.651019059e-07
1.40253665e-07
-1.723590558e-07
1.488294355e-07
-1.799574991e-07
1.57377564e-07
-1.879697922e-07
1.658442287e-07
-1.968749867e-07
1.73801318e-07
-2.017442916e-07
1.867491837e-07
-2.511365423e-07
1.436925029e-07
2.757193478e-08
3.803641633e-06
9.022268815e-11
-1.901826432e-09
3.613211384e-10
-5.714396988e-09
8.157074551e-10
-9.557486128e-09
1.457540563e-09
-1.345212575e-08
2.292619666e-09
-1.741829313e-08
3.328304502e-09
-2.147496979e-08
4.573415485e-09
-2.563984206e-08
6.038110378e-09
-2.992902749e-08
7.73373283e-09
-3.435679973e-08
9.67262926e-09
-3.893531884e-08
1.186793125e-08
-4.367437641e-08
1.43333015e-08
-4.858116531e-08
1.708264227e-08
-5.366008637e-08
2.012976675e-08
-5.89126055e-08
2.348803559e-08
-6.433717733e-08
2.716996291e-08
-6.992925133e-08
3.118679785e-08
-7.568137704e-08
3.554809007e-08
-8.15834254e-08
4.026125002e-08
-8.762294019e-08
4.533112124e-08
-9.378563612e-08
5.075958146e-08
-1.00056057e-07
5.654514126e-08
-1.064183346e-07
6.268254901e-08
-1.128570607e-07
6.916264467e-08
-1.19358438e-07
7.597210172e-08
-1.259115102e-07
8.309325026e-08
-1.325093604e-07
9.050393763e-08
-1.391502606e-07
9.817748639e-08
-1.458390063e-07
1.060826098e-07
-1.525881762e-07
1.14183267e-07
-1.594192997e-07
1.224383718e-07
-1.663639502e-07
1.308012421e-07
-1.734647686e-07
1.392188026e-07
-1.807766068e-07
1.476304752e-07
-1.883691637e-07
1.559663337e-07
-1.963056412e-07
1.641559228e-07
-2.050645669e-07
1.718341873e-07
-2.094225465e-07
1.840579075e-07
-2.63357729e-07
1.395126555e-07
7.181180794e-08
3.95989582e-06
8.700651872e-11
-1.988832768e-09
3.484976042e-10
-5.975887528e-09
7.870393057e-10
-9.996026931e-09
1.407048458e-09
-1.407213366e-08
2.214687313e-09
-1.82259304e-08
3.217783769e-09
-2.247806432e-08
4.425731411e-09
-2.684778743e-08
5.849364629e-09
-3.13526581e-08
7.500803434e-09
-3.60082356e-08
9.393263565e-09
-4.082777572e-08
1.154082808e-08
-4.582193735e-08
1.395817762e-08
-5.099851099e-08
1.666027754e-08
-5.636218213e-08
1.966202169e-08
-6.191434521e-08
2.297783452e-08
-6.765298544e-08
2.662123589e-08
-7.357264771e-08
3.060437512e-08
-7.966451101e-08
3.493754353e-08
-8.591658831e-08
3.962867795e-08
-9.231406887e-08
4.468288797e-08
-9.883984016e-08
5.010196405e-08
-1.054751269e-07
5.5883911e-08
-1.122002751e-07
6.202260949e-08
-1.189957526e-07
6.850752628e-08
-1.258433479e-07
7.532346927e-08
-1.327274461e-07
8.245039052e-08
-1.396362743e-07
8.986329895e-08
-1.465631616e-07
9.753226248e-08
-1.535079622e-07
1.054223493e-07
-1.60478255e-07
1.134935156e-07
-1.674904584e-07
1.217003149e-07
-1.745707406e-07
1.299913372e-07
-1.817557832e-07
1.383081606e-07
-1.890934208e-07
1.465837981e-07
-1.966447929e-07
1.547418102e-07
-2.044636441e-07
1.626976193e-07
-2.130203669e-07
1.700736077e-07
-2.167985254e-07
1.81446107e-07
-2.747272146e-07
1.359070948e-07
1.170339594e-07
4.112511171e-06
8.351307424e-11
-2.072345659e-09
3.345702354e-10
-6.226944145e-09
7.559023512e-10
-1.041735815e-08
1.352201944e-09
-1.466843202e-08
2.130020223e-09
-1.90037471e-08
3.097688412e-09
-2.344573059e-08
4.265219079e-09
-2.801531584e-08
5.644181179e-09
-3.273161761e-08
7.247542615e-09
-3.761159411e-08
9.089474872e-09
-4.266970473e-08
1.118511487e-08
-4.79175738e-08
1.355028007e-08
-5.336367234e-08
1.620113415e-08
-5.901303206e-08
1.915380223e-08
-6.486700885e-08
2.242393679e-08
-7.092311528e-08
2.602623824e-08
-7.717494416e-08
2.997393725e-08
-8.361220477e-08
3.427824929e-08
-9.022089484e-08
3.894782076e-08
-9.698363462e-08
4.398818683e-08
-1.038802003e-07
4.940118024e-08
-1.108881141e-07
5.518446042e-08
-1.179835489e-07
6.133111556e-08
-1.251424011e-07
6.78292977e-08
-1.323415232e-07
7.466197371e-08
-1.395601151e-07
8.18067285e-08
-1.467810218e-07
8.923572818e-08
-1.539921538e-07
9.69157428e-08
-1.611879692e-07
1.048082001e-07
-1.683707042e-07
1.128691643e-07
-1.755514151e-07
1.210491202e-07
-1.827506876e-07
1.292923962e-07
-1.899990515e-07
1.375359825e-07
-1.97336998e-07
1.457072513e-07
-2.048160532e-07
1.537217784e-07
-2.124781619e-07
1.614897522e-07
-2.207883317e-07
1.686236711e-07
-2.239324349e-07
1.794061319e-07
-2.855062451e-07
1.328199691e-07
1.632930081e-07
4.262004343e-06
7.9725458e-11
-2.152070935e-09
3.194714938e-10
-6.466689639e-09
7.221442677e-10
-1.082003004e-08
1.292729145e-09
-1.523901567e-08
2.038191561e-09
-1.974920794e-08
2.967400876e-09
-2.437493799e-08
4.091034631e-09
-2.913894735e-08
5.421455393e-09
-3.406203579e-08
6.972552927e-09
-3.916268873e-08
8.759545075e-09
-4.445669365e-08
1.079873131e-08
-4.99567565e-08
1.310719365e-08
-5.567213086e-08
1.570244104e-08
-6.160827531e-08
1.860199521e-08
-6.776655858e-08
2.182291853e-08
-7.414403388e-08
2.538128718e-08
-8.073330782e-08
2.929161731e-08
-8.752252966e-08
3.356625522e-08
-9.449552727e-08
3.821476893e-08
-1.016321426e-07
4.324328211e-08
-1.089087075e-07
4.86538566e-08
-1.162986824e-07
5.444395622e-08
-1.237736421e-07
6.060596541e-08
-1.313044037e-07
6.712678509e-08
-1.38862336e-07
7.398755773e-08
-1.464208807e-07
8.116348634e-08
-1.539569432e-07
8.862384232e-08
-1.614525023e-07
9.633205532e-08
-1.688961747e-07
1.042458725e-07
-1.762845132e-07
1.123174933e-07
-1.836230284e-07
1.204935652e-07
-1.909267506e-07
1.287147322e-07
-1.982202106e-07
1.369144997e-07
-2.055367565e-07
1.450165443e-07
-2.129180892e-07
1.529303064e-07
-2.203919149e-07
1.605526341e-07
-2.284106502e-07
1.675272058e-07
-2.309069973e-07
1.778657478e-07
-2.958410202e-07
1.302333276e-07
2.105893297e-07
4.408875081e-06
7.562577048e-11
-2.227696525e-09
3.031297909e-10
-6.694193123e-09
6.856033363e-10
-1.12025027e-08
1.228340756e-09
-1.578175186e-08
1.938745852e-09
-2.045961148e-08
2.826259941e-09
-2.526245017e-08
3.902271069e-09
-3.021495624e-08
5.179994909e-09
-3.533975706e-08
6.67431888e-09
-4.065700981e-08
8.401601525e-09
-4.61839731e-08
1.037941965e-08
-5.193457112e-08
1.262625648e-08
-5.791896386e-08
1.516112532e-08
-6.414314003e-08
1.800312549e-08
-7.060855433e-08
2.117093027e-08
-7.731183396e-08
2.468220936e-08
-8.424458194e-08
2.855299385e-08
-9.139330891e-08
3.279699771e-08
-9.873952565e-08
3.742493583e-08
-1.06260075e-07
4.244373324e-08
-1.13927499e-07
4.785588457e-08
-1.217108276e-07
5.365881453e-08
-1.295765657e-07
5.98443157e-08
-1.374898982e-07
6.639809944e-08
-1.454161129e-07
7.32994914e-08
-1.533222656e-07
8.052126841e-08
-1.611787129e-07
8.802971177e-08
-1.689609381e-07
9.578479299e-08
-1.766512484e-07
1.037404863e-07
-1.842401983e-07
1.118451143e-07
-1.917276487e-07
1.200415962e-07
-1.991232239e-07
1.282673652e-07
-2.064459716e-07
1.36453544e-07
-2.137229264e-07
1.445225276e-07
-2.209870642e-07
1.523830915e-07
-2.282524697e-07
1.599188334e-07
-2.35946383e-07
1.66801403e-07
-2.377895575e-07
1.767679729e-07
-3.058035739e-07
1.281387352e-07
2.588747099e-07
4.553615489e-06
7.119520774e-11
-2.298891553e-09
2.854698033e-10
-6.908467186e-09
6.46109062e-10
-1.156314108e-08
1.158730985e-09
-1.629437257e-08
1.831200126e-09
-2.113207906e-08
2.673561869e-09
-2.610481002e-08
3.697959016e-09
-3.123935115e-08
4.918519464e-09
-3.656031495e-08
6.351205134e-09
-4.208969261e-08
8.013612681e-09
-4.784637746e-08
9.92471675e-09
-5.384567169e-08
1.210454722e-08
-6.009879052e-08
1.457379341e-08
-6.661238211e-08
1.73533299e-08
-7.338808641e-08
2.046366258e-08
-8.042216196e-08
2.39242971e-08
-8.770521151e-08
2.775303695e-08
-9.522204355e-08
3.196523894e-08
-1.029517222e-07
3.657299965e-08
-1.108678301e-07
4.158431458e-08