/*--------------------------------*- C++ -*----------------------------------*\
| =========                 |                                                 |
| \\      /  F ield         | OpenFOAM: The Open Source CFD Toolbox           |
|  \\    /   O peration     | Version:  v1912                                 |
|   \\  /    A nd           | Website:  www.openfoam.com                      |
|    \\/     M anipulation  |                                                 |
\*---------------------------------------------------------------------------*/
FoamFile
{
    version     2.0;
    format      ascii;
    class       surfaceScalarField;
    location    "0.5";
    object      phi.gas;
}
// * * * * * * * * * * * * * * * * * * * * * * * * * * * * * * * * * * * * * //

dimensions      [0 3 -1 0 0 0 0];
oriented        oriented;


internalField   nonuniform List<scalar> 
9440
(
1.083691947e-10
7.451376345e-09
4.368615472e-10
2.235076555e-08
9.865253917e-10
3.72491283e-08
1.759318526e-09
5.214551605e-08
2.75806616e-09
6.703908214e-08
3.986360506e-09
8.192905372e-08
5.448514568e-09
9.68147092e-08
7.149496819e-09
1.116953919e-07
9.094859558e-09
1.265705168e-07
1.129066411e-08
1.414395734e-07
1.374340223e-08
1.563021299e-07
1.645991729e-08
1.711578332e-07
1.944732871e-08
1.860064059e-07
2.271296357e-08
2.008476388e-07
2.626429986e-08
2.156813799e-07
3.010892684e-08
2.305075169e-07
3.42545289e-08
2.453259541e-07
3.87089e-08
2.601365817e-07
4.347999725e-08
2.74939237e-07
4.857604348e-08
2.897336553e-07
5.400569102e-08
3.04519409e-07
5.977826109e-08
3.19295832e-07
6.590407747e-08
3.340619254e-07
7.239491947e-08
3.488162382e-07
7.92646276e-08
3.635567149e-07
8.652991104e-08
3.782804929e-07
9.421143082e-08
3.929836272e-07
1.023352753e-07
4.076606972e-07
1.109350224e-07
4.223042203e-07
1.200547243e-07
4.369037278e-07
1.297534307e-07
4.514442286e-07
1.401124026e-07
4.659035168e-07
1.512476481e-07
4.80246872e-07
1.63330604e-07
4.944187438e-07
1.766507512e-07
5.083025132e-07
1.913804468e-07
5.219980998e-07
2.102143427e-07
5.331139844e-07
2.142512589e-07
5.624817472e-07
3.655979634e-07
4.093622818e-07
9.544486329e-07
1.138310886e-10
6.822087825e-09
4.558070989e-10
2.046245081e-08
1.027697259e-09
3.410002346e-08
1.831678813e-09
4.773342528e-08
2.870790702e-09
6.136096626e-08
4.14888718e-09
7.498105341e-08
5.670593122e-09
8.859219424e-08
7.441239737e-09
1.021930248e-07
9.466794683e-09
1.157823229e-07
1.175378817e-08
1.293590146e-07
1.430923182e-08
1.429221857e-07
1.714053893e-08
1.564710804e-07
2.025544787e-08
1.700050951e-07
2.366195263e-08
1.835237642e-07
2.736824535e-08
1.970267366e-07
3.13826763e-08
2.105137412e-07
3.571373787e-08
2.239845396e-07
4.037008005e-08
2.374388644e-07
4.536056605e-08
2.508763401e-07
5.069437835e-08
2.642963834e-07
5.638118759e-08
2.776980801e-07
6.243139908e-08
2.910800314e-07
6.885649616e-08
3.044401635e-07
7.566950464e-08
3.177754865e-07
8.288561229e-08
3.310817871e-07
9.05229901e-08
3.443532249e-07
9.860388446e-08
3.575817849e-07
1.071560867e-07
3.70756508e-07
1.162149488e-07
3.838623571e-07
1.258262263e-07
3.968784665e-07
1.360502347e-07
4.09775292e-07
1.469681705e-07
4.225097546e-07
1.586919393e-07
4.350164353e-07
1.713790738e-07
4.471941639e-07
1.852731733e-07
4.588412407e-07
2.006730528e-07
4.699934777e-07
2.203796186e-07
4.758135501e-07
2.29360975e-07
5.144073134e-07
2.862782331e-07
3.003855696e-07
1.230888109e-06
1.137114341e-10
6.738984665e-09
4.552397329e-10
2.021280559e-08
1.026119754e-09
3.368229716e-08
1.828638894e-09
4.714531613e-08
2.865903171e-09
6.05993706e-08
4.141826274e-09
7.404205498e-08
5.661090173e-09
8.747110826e-08
7.429087332e-09
1.008844557e-07
9.451850525e-09
1.14280234e-07
1.173597354e-08
1.276568075e-07
1.428853134e-08
1.410127801e-07
1.711699791e-08
1.543469962e-07
2.022916663e-08
1.676585319e-07
2.363307738e-08
1.809466745e-07
2.733695499e-08
1.942108873e-07
3.134916452e-08
2.074507583e-07
3.567818978e-08
2.206659303e-07
4.033264232e-08
2.33856008e-07
4.53213096e-08
2.470204405e-07
5.065325179e-08
2.601583727e-07
5.633795925e-08
2.732684618e-07
6.238558438e-08
2.863486492e-07
6.88072648e-08
2.993958785e-07
7.561555981e-08
3.12405742e-07
8.282502788e-08
3.253720318e-07
9.045298286e-08
3.382861575e-07
9.852048062e-08
3.511363684e-07
1.070536089e-07
3.639066803e-07
1.160851844e-07
3.765753352e-07
1.256570045e-07
3.891124947e-07
1.358228622e-07
4.014766287e-07
1.466526064e-07
4.13608613e-07
1.582376394e-07
4.254214893e-07
1.706989181e-07
4.367845325e-07
1.841977401e-07
4.474561213e-07
1.988673137e-07
4.574965768e-07
2.158249084e-07
4.611064324e-07
2.286141077e-07
5.036328719e-07
2.428972436e-07
2.70204104e-07
1.506858867e-06
1.133459055e-10
6.623890932e-09
4.53798094e-10
1.986718903e-08
1.022779148e-09
3.310472155e-08
1.822608968e-09
4.633344892e-08
2.856456739e-09
5.955004547e-08
4.128305684e-09
7.27512865e-08
5.642913927e-09
8.59341358e-08
7.405754884e-09
9.909580273e-08
9.422945925e-09
1.122337793e-07
1.170116829e-08
1.253458653e-07
1.424758326e-08
1.384301835e-07
1.70697463e-08
1.514851835e-07
2.017552274e-08
1.645096305e-07
2.357300938e-08
1.775025793e-07
2.727046633e-08
1.904633291e-07
3.127626475e-08
2.033913563e-07
3.55988565e-08
2.162862225e-07
4.024677279e-08
2.291474528e-07
4.522866003e-08
2.419743813e-07
5.055336195e-08
2.547659563e-07
5.623005868e-08
2.675204999e-07
6.226847501e-08
2.802354107e-07
6.867917243e-08
2.929067983e-07
7.547394161e-08
3.055290294e-07
8.266631666e-08
3.18094157e-07
9.027223535e-08
3.30591192e-07
9.831087429e-08
3.430051511e-07
1.068056898e-07
3.553157772e-07
1.157856903e-07
3.674957676e-07
1.252869373e-07
3.795082384e-07
1.353541866e-07
3.91302973e-07
1.460423621e-07
4.028106872e-07
1.574170407e-07
4.139337758e-07
1.69552258e-07
4.24533063e-07
1.825179229e-07
4.343710188e-07
1.963376831e-07
4.435546317e-07
2.108221883e-07
4.464977607e-07
2.223846345e-07
4.885518771e-07
2.20650741e-07
2.531447615e-07
1.763531258e-06
1.128324507e-10
6.511236606e-09
4.517444355e-10
1.952891044e-08
1.018117864e-09
3.253941335e-08
1.814302341e-09
4.553875018e-08
2.84353401e-09
5.852272309e-08
4.109881226e-09
7.148727002e-08
5.618199938e-09
8.442856692e-08
7.37407069e-09
9.734309794e-08
9.383724535e-09
1.102277038e-07
1.165396008e-08
1.23079616e-07
1.419205513e-08
1.358964772e-07
1.700567555e-08
1.486763479e-07
2.010278466e-08
1.61417695e-07
2.34915573e-08
1.741193607e-07
2.71803029e-08
1.867805087e-07
3.117740306e-08
1.994005424e-07
3.549126921e-08
2.11978993e-07
4.013032753e-08
2.245153707e-07
4.510303834e-08
2.370089754e-07
5.041795861e-08
2.494586594e-07
5.608385682e-08
2.618625345e-07
6.210989058e-08
2.742176119e-07
6.850585831e-08
2.865193633e-07
7.528253681e-08
2.987611803e-07
8.245211722e-08
3.109337063e-07
9.002875083e-08
3.230239976e-07
9.802921003e-08
3.350144563e-07
1.064736563e-07
3.468814435e-07
1.15386473e-07
3.58593443e-07
1.247970424e-07
3.701085813e-07
1.347401593e-07
3.813712378e-07
1.452553953e-07
3.923073606e-07
1.563839601e-07
4.02817713e-07
1.68161307e-07
4.127689105e-07
1.805905747e-07
4.219553798e-07
1.936702406e-07
4.304912857e-07
2.065651038e-07
4.336120144e-07
2.177197375e-07
4.73233625e-07
2.073287371e-07
2.451888701e-07
2.009474502e-06
1.121663864e-10
6.399127745e-09
4.490822301e-10
1.919228565e-08
1.012121826e-09
3.197686538e-08
1.80367719e-09
4.474787716e-08
2.827061718e-09
5.750021484e-08
4.086445756e-09
7.022895432e-08
5.586805446e-09
8.292946547e-08
7.333855236e-09
9.559749347e-08
9.333969769e-09
1.082292182e-07
1.159409654e-08
1.208212973e-07
1.412166198e-08
1.333708937e-07
1.69244736e-08
1.458756857e-07
2.001062151e-08
1.583338564e-07
2.3388383e-08
1.707440601e-07
2.706613472e-08
1.831053597e-07
3.105227743e-08
1.954171338e-07
3.535517901e-08
2.076789456e-07
3.998314214e-08
2.198903701e-07
4.494440368e-08
2.320507731e-07
5.024717319e-08
2.441590345e-07
5.589971882e-08
2.562132085e-07
6.191050875e-08
2.682101083e-07
6.828841637e-08
2.801448027e-07
7.504299607e-08
2.920100063e-07
8.218483459e-08
3.037953346e-07
8.972597758e-08
3.154863909e-07
9.768041867e-08
3.270636366e-07
1.060646158e-07
3.385009768e-07
1.148979519e-07
3.497639798e-07
1.242029632e-07
3.608076292e-07
1.340049677e-07
3.715735338e-07
1.443304328e-07
3.819865024e-07
1.552031141e-07
3.919500168e-07
1.666327406e-07
4.013447673e-07
1.78584203e-07
4.100095413e-07
1.910500163e-07
4.180347752e-07
2.029657437e-07
4.21691749e-07
2.140864286e-07
4.573574681e-07
1.957470785e-07
2.437205793e-07
2.245665396e-06
1.11346525e-10
6.287840556e-09
4.458085246e-10
1.885813892e-08
1.004772488e-09
3.14184305e-08
1.790688627e-09
4.396269548e-08
2.806962352e-09
5.648488441e-08
4.057884939e-09
6.897918221e-08
5.548576486e-09
8.144012964e-08
7.2849134e-09
9.386271494e-08
9.273445296e-09
1.06242444e-07
1.15213021e-08
1.185753933e-07
1.403609342e-08
1.308582451e-07
1.682580269e-08
1.430883026e-07
1.989867914e-08
1.552634822e-07
2.326313114e-08
1.673822775e-07
2.692762531e-08
1.794436922e-07
3.090059611e-08
1.914471358e-07
3.51903714e-08
2.033922773e-07
3.980511996e-08
2.152788501e-07
4.47528275e-08
2.271064028e-07
5.004130783e-08
2.388739875e-07
5.567825588e-08
2.50579778e-07
6.167134933e-08
2.622206066e-07
6.802840393e-08
2.737914066e-07
7.475758541e-08
2.852845462e-07
8.186767703e-08
2.966890283e-07
8.936839389e-08
3.079895309e-07
9.727072169e-08
3.191652523e-07
1.055872311e-07
3.301885222e-07
1.143322756e-07
3.410231369e-07
1.235218999e-07
3.516224013e-07
1.331731857e-07
3.619269005e-07
1.433028945e-07
3.718617772e-07
1.539230803e-07
3.813352296e-07
1.650328593e-07
3.902409267e-07
1.765920259e-07
3.984564271e-07
1.885979331e-07
4.060394742e-07
1.998738284e-07
4.1040909e-07
2.102229061e-07
4.406800123e-07
1.841085843e-07
2.486217951e-07
2.472720521e-06
1.103700985e-10
6.177524614e-09
4.419123254e-10
1.852691442e-08
9.96039775e-10
3.086483342e-08
1.775276829e-09
4.318419449e-08
2.78313825e-09
5.547796841e-08
4.024057256e-09
6.77394166e-08
5.503323397e-09
7.996222321e-08
7.227004816e-09
9.214059725e-08
9.201859476e-09
1.04269354e-07
1.143523576e-08
1.163439786e-07
1.393496406e-08
1.283606702e-07
1.670924157e-08
1.40316364e-07
1.976651329e-08
1.522087272e-07
2.311535234e-08
1.64036124e-07
2.676434391e-08
1.757975446e-07
3.072197756e-08
1.87492493e-07
3.499655266e-08
1.99120827e-07
3.959610312e-08
2.106825446e-07
4.452834716e-08
2.221775096e-07
4.980066828e-08
2.336051089e-07
5.542013296e-08
2.449638341e-07
6.139355014e-08
2.562507761e-07
6.772757599e-08
2.674610239e-07
7.442886341e-08
2.785869527e-07
8.150425163e-08
2.89617384e-07
8.896098371e-08
3.005365987e-07
9.680692443e-08
3.113231819e-07
1.050507318e-07
3.219486806e-07
1.137018981e-07
3.323760691e-07
1.22770552e-07
3.425580308e-07
1.322669599e-07
3.524350298e-07
1.422002662e-07
3.619333492e-07
1.525754634e-07
3.709653567e-07
1.633909478e-07
3.794313642e-07
1.746269653e-07
3.872264768e-07
1.863430969e-07
3.943340045e-07
1.973751991e-07
3.993656249e-07
2.049519279e-07
4.237807947e-07
1.718394465e-07
2.604879723e-07
2.69105543e-06
1.092330518e-10
6.0683413e-09
4.373770662e-10
1.819909201e-08
9.858838634e-10
3.031686075e-08
1.757367754e-09
4.241345176e-08
2.755471746e-09
5.448081654e-08
3.984793882e-09
6.65112565e-08
5.450820552e-09
7.849756714e-08
7.159843471e-09
9.043315153e-08
9.118864732e-09
1.023121138e-07
1.133549012e-08
1.141293343e-07
1.381781192e-08
1.258805246e-07
1.657428324e-08
1.375622578e-07
1.961358646e-08
1.491719703e-07
2.294449894e-08
1.607079298e-07
2.657575992e-08
1.72169163e-07
3.051594321e-08
1.835553377e-07
3.477334037e-08
1.948665926e-07
3.935586009e-08
2.061033075e-07
4.427094931e-08
2.17265807e-07
4.952554163e-08
2.28353991e-07
5.512603814e-08
2.39366884e-07
6.107832406e-08
2.503020943e-07
6.738782357e-08
2.611551741e-07
7.405959098e-08
2.719188721e-07
8.109843161e-08
2.825822644e-07
8.850904002e-08
2.931297494e-07
9.629612938e-08
3.035399031e-07
1.044645011e-07
3.137841954e-07
1.130190244e-07
3.23825547e-07
1.219644597e-07
3.336167676e-07
1.313052909e-07
3.430986182e-07
1.41044378e-07
3.521990287e-07
1.511818975e-07
3.60833078e-07
1.617162931e-07
3.689028793e-07
1.726431021e-07
3.763059371e-07
1.840820444e-07
3.829063345e-07
1.951794684e-07
3.882499085e-07
2.022193018e-07
4.050626373e-07
1.611652961e-07
2.79072163e-07
2.9015561e-06
1.079301447e-10
5.96045681e-09
4.321814998e-10
1.787516611e-08
9.742557851e-10
2.977532444e-08
1.736872922e-09
4.16515811e-08
2.723824187e-09
5.349482449e-08
3.939897002e-09
6.529635495e-08
5.390803963e-09
7.704804254e-08
7.083094483e-09
8.87424529e-08
9.024053316e-09
1.003729539e-07
1.122158591e-08
1.119338044e-07
1.368409161e-08
1.234202206e-07
1.642032632e-08
1.348284177e-07
1.943925714e-08
1.461556192e-07
2.274991183e-08
1.574000304e-07
2.636122676e-08
1.685607675e-07
3.028189798e-08
1.796377369e-07
3.452023995e-08
1.906314571e-07
3.908405733e-08
2.015428161e-07
4.398053529e-08
2.123727569e-07
4.921615368e-08
2.23121884e-07
5.479662968e-08
2.337899847e-07
6.072689187e-08
2.443754568e-07
6.701108716e-08
2.548746365e-07
7.365261849e-08
2.6528102e-07
8.06542077e-08
2.755843698e-07
8.801797316e-08
2.857696953e-07
9.574548146e-08
2.958161338e-07
1.038377671e-07
3.056957002e-07
1.122953067e-07
3.153718884e-07
1.21117992e-07
3.24798113e-07
1.303048267e-07
3.339160484e-07
1.398531717e-07
3.426552936e-07
1.497592157e-07
3.509321357e-07
1.600196266e-07
3.58648284e-07
1.706305883e-07
3.657013586e-07
1.817157181e-07
3.718335767e-07
1.925248624e-07
3.77422351e-07
1.96332695e-07
3.856204528e-07
1.495904832e-07
3.041666361e-07
3.104449948e-06
1.064550413e-10
5.854043727e-09
4.263001166e-10
1.755565038e-08
9.610977045e-10
2.924106888e-08
1.713689161e-09
4.089974183e-08
2.68803502e-09
5.252144552e-08
3.889138208e-09
6.409643311e-08
5.322968902e-09
7.561560715e-08
6.996370811e-09
8.707065913e-08
8.916952896e-09
9.845419091e-08
1.109296624e-08
1.09759818e-07
1.353316685e-08
1.209822504e-07
1.624666571e-08
1.321173467e-07
1.924276827e-08
1.431621343e-07
2.253080617e-08
1.541147901e-07
2.611996449e-08
1.649745748e-07
3.001910921e-08
1.757417118e-07
3.42366193e-08
1.864172044e-07
3.878022886e-08
1.970025835e-07
4.365688474e-08
2.074995778e-07
4.88726249e-08
2.179096996e-07
5.443248214e-08
2.282337411e-07
6.034041608e-08
2.384711738e-07
6.659927474e-08
2.486194475e-07
7.321078439e-08
2.586731836e-07
8.017556532e-08
2.686232557e-07
8.749315552e-08
2.784557632e-07
9.51619971e-08
2.881509495e-07
1.031794609e-07
2.976819142e-07
1.115418111e-07
3.070132753e-07
1.202443341e-07
3.160994473e-07
1.292806842e-07
3.248837656e-07
1.386429328e-07
3.332974445e-07
1.483226823e-07
3.412572834e-07
1.583129562e-07
3.486636531e-07
1.686077037e-07
3.5541276e-07
1.792971336e-07
3.611565425e-07
1.895658583e-07
3.671357707e-07
1.896310031e-07
3.676360756e-07
1.39806061e-07
3.32621259e-07
3.299927932e-06
1.048003594e-10
5.749282049e-09
4.197033052e-10
1.724108065e-08
9.463429507e-10
2.871497545e-08
1.68769822e-09
4.015914473e-08
2.647920817e-09
5.156219797e-08
3.832256808e-09
6.291328928e-08
5.246967367e-09
7.420230591e-08
6.899229694e-09
8.542002274e-08
8.797021742e-09
9.655824e-08
1.094899022e-08
1.076099033e-07
1.33643023e-08
1.185692008e-07
1.605248219e-08
1.294316323e-07
1.902323425e-08
1.401940428e-07
2.22862555e-08
1.508546146e-07
2.585104059e-08
1.614128081e-07
2.972668352e-08
1.718692449e-07
3.392168111e-08
1.822255229e-07
3.844374339e-08
1.924839574e-07
4.32996166e-08
2.026472387e-07
4.849492431e-08
2.127180004e-07
5.403403168e-08
2.226982921e-07
5.991993601e-08
2.325889534e-07
6.615418487e-08
2.423888854e-07
7.273682455e-08
2.520942137e-07
7.966638099e-08
2.616973376e-07
8.693980279e-08
2.711859413e-07
9.455246193e-08
2.805418554e-07
1.024981497e-07
2.897397743e-07
1.107691326e-07
2.987458601e-07
1.193559799e-07
3.075162489e-07
1.28247082e-07
3.15996485e-07
1.374293068e-07
3.241193449e-07
1.468886108e-07
3.318025892e-07
1.566116627e-07
3.389459778e-07
1.665842457e-07
3.45445865e-07
1.768560455e-07
3.50896747e-07
1.866057811e-07
3.573654731e-07
1.835124329e-07
3.506033658e-07
1.306815746e-07
3.640912066e-07
3.488503324e-06
1.029576824e-10
5.646360216e-09
4.123573802e-10
1.693201799e-08
9.299159039e-10
2.819796743e-08
1.658766287e-09
3.943105872e-08
2.603274245e-09
5.061867361e-08
3.768958076e-09
6.174880909e-08
5.16240543e-09
7.281028291e-08
6.791168877e-09
8.379290447e-08
8.663643576e-09
9.468763054e-08
1.078892613e-08
1.054867041e-07
1.317665466e-08
1.161837703e-07
1.583683107e-08
1.26773963e-07
1.877962673e-08
1.372539558e-07
2.201517436e-08
1.476219669e-07
2.55533489e-08
1.578777118e-07
2.94035417e-08
1.680222925e-07
3.357443318e-08
1.780580148e-07
3.807376938e-08
1.879881257e-07
4.290814823e-08
1.978164609e-07
4.808282208e-08
2.075469973e-07
5.360152152e-08
2.171833048e-07
5.946630496e-08
2.267278951e-07
6.567743625e-08
2.361814644e-07
7.223329845e-08
2.455420221e-07
7.913032581e-08
2.548039209e-07
8.636289893e-08
2.63956906e-07
9.39233722e-08
2.72984845e-07
1.018020658e-07
2.818644824e-07
1.099873123e-07
2.90563984e-07
1.184647907e-07
2.990421708e-07
1.272178382e-07
3.072469634e-07
1.362279362e-07
3.151130316e-07
1.454744395e-07
3.225603119e-07
1.549353617e-07
3.294900346e-07
1.645852833e-07
3.35801183e-07
1.744433935e-07
3.41050407e-07
1.837179474e-07
3.480713633e-07
1.775461696e-07
3.34518716e-07
1.221531833e-07
3.980926906e-07
3.670593669e-06
1.009175578e-10
5.545476146e-09
4.042245417e-10
1.662905173e-08
9.11731792e-10
2.769101496e-08
1.626743462e-09
3.871681776e-08
2.553863006e-09
4.969254651e-08
3.698911493e-09
6.060497629e-08
5.068840537e-09
7.144179418e-08
6.671622723e-09
8.21917881e-08
8.516122194e-09
9.284502242e-08
1.06119442e-08
1.033929977e-07
1.296926323e-08
1.138287882e-07
1.559863014e-08
1.241471495e-07
1.851075954e-08
1.343445887e-07
2.17162995e-08
1.444193877e-07
2.522558678e-08
1.5437157e-07
2.904839147e-08
1.642028011e-07
3.319365651e-08
1.739162102e-07
3.766923806e-08
1.835161276e-07
4.248165314e-08
1.930077248e-07
4.76358414e-08
2.023965532e-07
5.313494768e-08
2.116879756e-07
5.898013018e-08
2.20886489e-07
6.517040089e-08
2.299949362e-07
7.170251631e-08
2.390135841e-07
7.857080323e-08
2.479392192e-07
8.576713474e-08
2.567640479e-07
9.328092327e-08
2.654744059e-07
1.010991009e-07
2.740495385e-07
1.092057175e-07
2.82460517e-07
1.175819498e-07
2.906690519e-07
1.262064069e-07
2.986256738e-07
1.350547151e-07
3.062680853e-07
1.440994018e-07
3.135193692e-07
1.533094842e-07
3.20284394e-07
1.626458598e-07
3.264693828e-07
1.720980142e-07
3.316091599e-07
1.809532894e-07
3.391981567e-07
1.719261661e-07
3.192017054e-07
1.141908223e-07
4.343797861e-07
3.846629273e-06
9.866948056e-11
5.44683829e-09
3.952627935e-10
1.633280265e-08
8.916964467e-10
2.71951403e-08
1.591463176e-09
3.801782809e-08
2.499428775e-09
4.878558239e-08
3.621748963e-09
5.948388424e-08
4.96577881e-09
7.009922139e-08
6.539958284e-09
8.061929639e-08
8.35367594e-09
9.103322414e-08
1.041710915e-08
1.013317151e-07
1.274104004e-08
1.11507237e-07
1.533664696e-08
1.215541469e-07
1.821527257e-08
1.314687847e-07
2.138817011e-08
1.412495186e-07
2.486623119e-08
1.508967302e-07
2.865969884e-08
1.604127292e-07
3.277787146e-08
1.698015858e-07
3.722880448e-08
1.790688686e-07
4.201901664e-08
1.88221282e-07
4.715320897e-08
1.972661914e-07
5.263400432e-08
2.062110349e-07
5.846171585e-08
2.150626171e-07
6.463415242e-08
2.238262847e-07
7.114645753e-08
2.325049711e-07
7.799088909e-08
2.410983521e-07
8.515687391e-08
2.496014678e-07
9.263090696e-08
2.580036035e-07
1.00396346e-07
2.66287156e-07
1.084332758e-07
2.744264845e-07
1.167186045e-07
2.823865056e-07
1.252258931e-07
2.901211341e-07
1.339250692e-07
2.975717602e-07
1.427820755e-07
3.046654989e-07
1.517581207e-07
3.113121094e-07
1.608056376e-07
3.174255492e-07
1.698894037e-07
3.225351847e-07
1.783615805e-07
3.307059584e-07
1.666903292e-07
3.04557677e-07
1.06782775e-07
4.728211428e-07
4.017049589e-06
9.620187258e-11
5.3506667e-09
3.854258569e-10
1.604392616e-08
8.697060472e-10
2.671142315e-08
1.552741644e-09
3.733557581e-08
2.43968614e-09
4.789964843e-08
3.537063054e-09
5.838774822e-08
4.852672292e-09
6.878508663e-08
6.395471264e-09
7.90782083e-08
8.17543205e-09
8.925521264e-08
1.020337246e-08
9.930596305e-08
1.249075964e-08
1.092222759e-07
1.50494856e-08
1.18998081e-07
1.789161505e-08
1.286295424e-07
2.102910704e-08
1.381151305e-07
2.447351339e-08
1.474556298e-07
2.823565802e-08
1.566540735e-07
3.232530275e-08
1.657155889e-07
3.675080709e-08
1.746471422e-07
4.151879031e-08
1.834571729e-07
4.663380465e-08
1.92155109e-07
5.209802992e-08
2.00750757e-07
5.791100405e-08
2.092535626e-07
6.406940528e-08
2.176717281e-07
7.056673016e-08
2.260113682e-07
7.739327976e-08
2.342753535e-07
8.453604735e-08
2.424620428e-07
9.19785517e-08
2.505642083e-07
9.970069262e-08
2.585678783e-07
1.076787393e-07
2.66451059e-07
1.158852618e-07
2.741823955e-07
1.242888876e-07
2.817197803e-07
1.328539832e-07
2.890089208e-07
1.415401765e-07
2.959817191e-07
1.503019333e-07
3.025532747e-07
1.590869014e-07
3.086432108e-07
1.678524579e-07
3.137775591e-07
1.760242556e-07
3.225078318e-07
1.619752699e-07
2.904312861e-07
9.990287972e-08
5.134518651e-07
4.182279638e-06
9.35020663e-11
5.257194119e-09
3.746630841e-10
1.576311557e-08
8.456468912e-10
2.624100615e-08
1.510377358e-09
3.667163467e-08
2.374321653e-09
4.703672362e-08
3.44440536e-09
5.731891829e-08
4.728916337e-09
6.750206806e-08
6.237382086e-09
7.757147765e-08
7.980420945e-09
8.751415478e-08
9.969564389e-09
9.731904834e-08
1.221704838e-08
1.069772682e-07
1.473557271e-08
1.164822776e-07
1.753802786e-08
1.258300466e-07
2.063719084e-08
1.35019155e-07
2.404539232e-08
1.440508289e-07
2.777415984e-08
1.529288997e-07
3.183384256e-08
1.616596672e-07
3.623322584e-08
1.702516557e-07
4.097914526e-08
1.787152486e-07
4.607611082e-08
1.870621939e-07
5.152596095e-08
1.953049676e-07
5.732754331e-08
2.034559974e-07
6.347639935e-08
2.115267903e-07
6.996450847e-08
2.195270219e-07
7.678023083e-08
2.274631803e-07
8.390811523e-08
2.353374487e-07
9.132873537e-08
2.431465808e-07
9.901862123e-08
2.508806522e-07
1.069502492e-07
2.58521755e-07
1.150919031e-07
2.660427481e-07
1.234074109e-07
2.734060123e-07
1.318557583e-07
2.805621538e-07
1.403904816e-07
2.874485714e-07
1.489591701e-07
2.939865008e-07
1.575023904e-07
3.001015414e-07
1.659731681e-07
3.053127114e-07
1.738989166e-07
3.145448818e-07
1.577073424e-07
2.766619969e-07
9.354710816e-08
5.562105611e-07
4.342765802e-06
9.055629056e-11
5.166667082e-09
3.629194003e-10
1.549110539e-08
8.19395229e-10
2.578510051e-08
1.464150678e-09
3.60276742e-08
2.302993026e-09
4.619890942e-08
3.343285041e-09
5.627989289e-08
4.593847194e-09
6.625301661e-08
6.064832119e-09
7.610225295e-08
7.767570679e-09
8.581343064e-08
9.714386132e-09
9.537450476e-08
1.191837361e-08
1.047758112e-07
1.439314311e-08
1.140102953e-07
1.715252494e-08
1.230737034e-07
2.021023845e-08
1.319647214e-07
2.357952611e-08
1.406850475e-07
2.727275775e-08
1.492393794e-07
3.130101116e-08
1.576353029e-07
3.567363749e-08
1.658830618e-07
4.039782278e-08
1.73995198e-07
4.547816422e-08
1.819860437e-07
5.09162725e-08
1.898710523e-07
5.67103777e-08
1.976660243e-07
6.285494468e-08
2.053862314e-07
6.9340532e-08
2.130452504e-07
7.615355326e-08
2.206537184e-07
8.3276115e-08
2.282181323e-07
9.06858891e-08
2.357396843e-07
9.835609022e-08
2.432129136e-07
1.062554188e-07
2.506244406e-07
1.143479531e-07
2.579517839e-07
1.225928818e-07
2.651622423e-07
1.309440242e-07
2.722118421e-07
1.39349064e-07
2.790441605e-07
1.477486673e-07
2.8558763e-07
1.560736367e-07
2.917767931e-07
1.642594428e-07
2.971307286e-07
1.718795688e-07
3.068682995e-07
1.533623319e-07
2.63486595e-07
8.78073282e-08
6.004431432e-07
4.499063646e-06
8.734966747e-11
5.079347021e-09
3.501352856e-10
1.522867471e-08
7.908171663e-10
2.534499168e-08
1.413823578e-09
3.540546785e-08
2.225328536e-09
4.538844083e-08
3.233167671e-09
5.527333296e-08
4.446739947e-09
6.504097348e-08
5.876880309e-09
7.467389871e-08
7.535701729e-09
8.415665866e-08
9.436402195e-09
9.347612199e-08
1.159303297e-08
1.02621769e-07
1.402022536e-08
1.115859621e-07
1.673287437e-08
1.203641797e-07
1.974577919e-08
1.289551987e-07
2.307324232e-08
1.37361208e-07
2.672863203e-08
1.45587833e-07
3.072391483e-08
1.536440538e-07
3.506916757e-08
1.615419962e-07
3.97720821e-08
1.69296579e-07
4.483749554e-08
1.769249841e-07
5.026689753e-08
1.844459962e-07
5.605797722e-08
1.918792165e-07
6.220428883e-08
1.992440443e-07
6.869496774e-08
2.065584657e-07
7.551451153e-08
2.138377637e-07
8.264259098e-08
2.210932646e-07
9.005397463e-08
2.283310662e-07
9.771855543e-08
2.355505925e-07
1.056013138e-07
2.427433855e-07
1.136622377e-07
2.4989198e-07
1.218560529e-07
2.569689637e-07
1.301317299e-07
2.639361814e-07
1.384314531e-07
2.707440261e-07
1.466892792e-07
2.773292283e-07
1.548294256e-07
2.836354214e-07
1.627722309e-07
2.891895422e-07
1.700452711e-07
2.995030926e-07
1.491124011e-07
2.510285276e-07
8.270163937e-08
6.45671569e-07
4.651743019e-06
8.386622284e-11
4.995511358e-09
3.362467986e-10
1.497665047e-08
7.597686777e-10
2.492204507e-08
1.359139571e-09
3.48069014e-08
2.140926688e-09
4.460769759e-08
3.11347441e-09
5.430207656e-08
4.286806866e-09
6.386918853e-08
5.672500248e-09
7.329001789e-08
7.28352225e-09
8.254772258e-08
9.134033182e-09
9.162797721e-08
1.123914398e-08
1.005193092e-07
1.361462733e-08
1.092134158e-07
1.627657914e-08
1.177054479e-07
1.924102995e-08
1.259942423e-07
2.252350709e-08
1.340824846e-07
2.613855228e-08
1.419767784e-07
3.009920172e-08
1.496876009e-07
3.441643952e-08
1.572291209e-07
3.909864624e-08
1.646188542e-07
4.4151053e-08
1.71877117e-07
4.957515908e-08
1.790264185e-07
5.536826724e-08
1.860905493e-07
6.152309181e-08
1.930934892e-07
6.802739906e-08
2.000581596e-07
7.486378806e-08
2.070050205e-07
8.200949903e-08
2.139507584e-07
8.943638321e-08
2.209068523e-07
9.711095761e-08
2.278780738e-07
1.049944788e-07
2.348612457e-07
1.130429447e-07
2.418441717e-07
1.212068968e-07
2.488049149e-07
1.294308922e-07
2.557113414e-07
1.376523425e-07
2.625210431e-07
1.457994061e-07
2.691801566e-07
1.537882954e-07
2.75643798e-07
1.61533035e-07
2.814439913e-07
1.684970189e-07
2.923894914e-07
1.454499893e-07
2.390330455e-07
7.817255832e-08
6.919434515e-07
4.80131428e-06
8.008890784e-11
4.915454575e-09
3.211856555e-10
1.473591072e-08
7.260957533e-10
2.451771162e-08
1.299823837e-09
3.42339812e-08
2.049356193e-09
4.38592157e-08
2.983581565e-09
5.336915387e-08
4.113196204e-09
6.274113941e-08
5.450577715e-09
7.195447569e-08
7.009623732e-09
8.099080018e-08
8.805548831e-09
8.983446921e-08
1.085463371e-08
9.847294169e-08
1.31739215e-08
1.06897149e-07
1.578085727e-08
1.151018351e-07
1.869286929e-08
1.23085848e-07
2.192689244e-08
1.308523593e-07
2.54988375e-08
1.384089883e-07
2.942301444e-08
1.457678035e-07
3.371152114e-08
1.52945176e-07
3.837363603e-08
1.599614331e-07
4.341514638e-08
1.668403614e-07
4.8837745e-08
1.73608562e-07
5.463849374e-08
1.802944436e-07
6.080935067e-08
1.869270796e-07
6.733677263e-08
1.935348803e-07
7.420146957e-08
2.001440589e-07
8.137822851e-08
2.067772249e-07
8.883592594e-08
2.134517569e-07
9.65376534e-08
2.201782238e-07
1.044408884e-07
2.269590714e-07
1.124976585e-07
2.337875805e-07
1.206545411e-07
2.406472763e-07
1.288522494e-07
2.475119133e-07
1.370244938e-07
2.543461074e-07
1.450954214e-07
2.611056919e-07
1.529750927e-07
2.677598651e-07
1.605630362e-07
2.738525993e-07
1.672679349e-07
2.854449845e-07
1.422893816e-07
2.273635384e-07
7.420269853e-08
7.392603561e-07
4.94827466e-06
7.599964198e-11
4.839489242e-09
3.048794104e-10
1.45073878e-08
6.896347392e-10
2.413353335e-08
1.235583695e-09
3.36888424e-08
1.950156447e-09
4.31456988e-08
2.842820811e-09
5.247780248e-08
3.924991774e-09
6.16605513e-08
5.209909104e-09
7.067142441e-08
6.712477582e-09
7.949039402e-08
8.449061929e-09
8.810035524e-08
1.0437229e-08
9.648756244e-08
1.26954306e-08
1.046420583e-07
1.524262164e-08
1.125580788e-07
1.809781047e-08
1.202344118e-07
2.127954156e-08
1.276746848e-07
2.48053132e-08
1.348875541e-07
2.869093871e-08
1.418867625e-07
3.29498669e-08
1.486910355e-07
3.759249518e-08
1.55323737e-07
4.262538157e-08
1.618124787e-07
4.80506107e-08
1.681883246e-07
5.386515674e-08
1.744847807e-07
6.006032843e-08
1.807365726e-07
6.662132942e-08
1.869782031e-07
7.352698191e-08
1.932422708e-07
8.074956763e-08
1.995579217e-07
8.825488682e-08
2.059490041e-07
9.600248002e-08
2.124323567e-07
1.039459488e-07
2.190163706e-07
1.12033327e-07
2.256999111e-07
1.202073281e-07
2.324718392e-07
1.284052922e-07
2.393113199e-07
1.365583252e-07
2.461891945e-07
1.445889605e-07
2.530699564e-07
1.524063162e-07
2.59936321e-07
1.598953483e-07
2.663568957e-07
1.663681969e-07
2.786016595e-07
1.395773684e-07
2.159764629e-07
7.077538474e-08
7.875862343e-07
5.093115948e-06
7.157940703e-11
4.767946949e-09
2.872517607e-10
1.429207115e-08
6.502129337e-10
2.377114846e-08
1.166109485e-09
3.317375687e-08
1.842838594e-09
4.24700294e-08
2.690480228e-09
5.163148272e-08
3.721213559e-09
6.063141711e-08
4.949201039e-09
6.944532935e-08
6.390433047e-09
7.805136368e-08
8.062523614e-09
8.643079043e-08
9.984448114e-09
9.45685002e-08
1.217621441e-08
1.024534994e-07
1.465846069e-08
1.100793881e-07
1.745197474e-08
1.174447975e-07
2.057713373e-08
1.245537573e-07
2.405326688e-08
1.31415961e-07
2.789794878e-08
1.380468945e-07
3.212625402e-08
1.444677739e-07
3.674993211e-08
1.507052635e-07
4.177657948e-08
1.567911208e-07
4.720889184e-08
1.627612943e-07
5.304392947e-08
1.686549103e-07
5.927247538e-08
1.745129552e-07
6.587853751e-08
1.803766931e-07
7.283903903e-08
1.862858095e-07
8.01236706e-08
1.922766748e-07
8.769500225e-08
1.983802446e-07
9.550882342e-08
2.046201465e-07
1.035146514e-07
2.110110472e-07
1.116563781e-07
2.175574521e-07
1.198728822e-07
2.242532442e-07
1.280984273e-07
2.310822238e-07
1.362624192e-07
2.380201066e-07
1.442878331e-07
2.450378461e-07
1.520883162e-07
2.521277163e-07
1.595493764e-07
2.588860473e-07
1.659447849e-07
2.717040066e-07
1.375380729e-07
2.049882218e-07
6.791446536e-08
8.368581286e-07
5.236356511e-06
6.680831941e-11
4.701179159e-09
2.682228905e-10
1.409101004e-08
6.076493486e-10
2.343229612e-08
1.091075825e-09
3.269114056e-08
1.726887195e-09
4.183527974e-08
2.525806157e-09
5.083389271e-08
3.500819375e-09
5.965801785e-08
4.667071274e-09
6.828099544e-08