/*--------------------------------*- C++ -*----------------------------------*\
| =========                 |                                                 |
| \\      /  F ield         | OpenFOAM: The Open Source CFD Toolbox           |
|  \\    /   O peration     | Version:  v1912                                 |
|   \\  /    A nd           | Website:  www.openfoam.com                      |
|    \\/     M anipulation  |                                                 |
\*---------------------------------------------------------------------------*/
FoamFile
{
    version     2.0;
    format      ascii;
    class       volScalarField;
    location    "0.5";
    object      Tf.gasAndLiquid;
}
// * * * * * * * * * * * * * * * * * * * * * * * * * * * * * * * * * * * * * //

dimensions      [0 0 0 1 0 0 0];


internalField   nonuniform List<scalar> 
4800
(
111.5396392
111.5396392
111.5396392
111.5396392
111.5396392
111.5396392
111.5396392
111.5396392
111.5396392
111.5396392
111.5396392
111.5396392
111.5396392
111.5396392
111.5396392
111.5396391
111.5396391
111.5396391
111.5396391
111.5396391
111.5396391
111.5396391
111.5396391
111.539639
111.539639
111.539639
111.539639
111.539639
111.5396389
111.5396389
111.5396389
111.539639
111.5396373
111.5396525
111.5395404
111.5401845
111.5374055
111.5458981
111.5336318
111.538
111.5396284
111.5396284
111.5396284
111.5396284
111.5396284
111.5396284
111.5396284
111.5396284
111.5396284
111.5396283
111.5396283
111.5396283
111.5396283
111.5396283
111.5396283
111.5396282
111.5396282
111.5396282
111.5396282
111.5396282
111.5396281
111.5396281
111.5396281
111.539628
111.539628
111.539628
111.5396279
111.5396279
111.5396278
111.5396278
111.5396277
111.5396277
111.5396267
111.5396355
111.5395689
111.5399569
111.5382424
111.5436427
111.538
111.538
111.5396176
111.5396176
111.5396176
111.5396176
111.5396176
111.5396176
111.5396175
111.5396175
111.5396175
111.5396175
111.5396175
111.5396175
111.5396174
111.5396174
111.5396174
111.5396173
111.5396173
111.5396173
111.5396172
111.5396172
111.5396172
111.5396171
111.5396171
111.539617
111.539617
111.5396169
111.5396169
111.5396168
111.5396167
111.5396166
111.5396165
111.5396165
111.5396158
111.539621
111.5395786
111.5398375
111.5386211
111.5427848
111.538
111.538
111.5396068
111.5396068
111.5396067
111.5396067
111.5396067
111.5396067
111.5396067
111.5396067
111.5396067
111.5396066
111.5396066
111.5396066
111.5396066
111.5396065
111.5396065
111.5396064
111.5396064
111.5396064
111.5396063
111.5396063
111.5396062
111.5396061
111.5396061
111.539606
111.539606
111.5396059
111.5396058
111.5396057
111.5396056
111.5396055
111.5396053
111.5396052
111.5396046
111.5396084
111.5395761
111.5397789
111.5387906
111.5423219
111.538
111.538
111.5395959
111.5395959
111.5395959
111.5395959
111.5395959
111.5395959
111.5395959
111.5395958
111.5395958
111.5395958
111.5395958
111.5395957
111.5395957
111.5395956
111.5395956
111.5395955
111.5395955
111.5395954
111.5395954
111.5395953
111.5395953
111.5395952
111.5395951
111.539595
111.5395949
111.5395948
111.5395947
111.5395946
111.5395945
111.5395943
111.5395942
111.539594
111.5395935
111.5395965
111.5395693
111.5397432
111.5388772
111.5420326
111.538
111.538
111.5395851
111.5395851
111.5395851
111.5395851
111.5395851
111.5395851
111.539585
111.539585
111.539585
111.5395849
111.5395849
111.5395849
111.5395848
111.5395848
111.5395847
111.5395847
111.5395846
111.5395845
111.5395845
111.5395844
111.5395843
111.5395842
111.5395841
111.539584
111.5395839
111.5395838
111.5395837
111.5395835
111.5395834
111.5395832
111.539583
111.5395828
111.5395823
111.5395849
111.5395605
111.539719
111.5389181
111.5418518
111.538
111.538
111.5395743
111.5395743
111.5395743
111.5395743
111.5395743
111.5395742
111.5395742
111.5395742
111.5395741
111.5395741
111.5395741
111.539574
111.539574
111.5395739
111.5395738
111.5395738
111.5395737
111.5395736
111.5395735
111.5395734
111.5395734
111.5395733
111.5395732
111.539573
111.5395729
111.5395728
111.5395726
111.5395725
111.5395723
111.5395721
111.5395719
111.5395717
111.5395712
111.5395734
111.539551
111.5396994
111.5389397
111.541727
111.538
111.538
111.5395635
111.5395635
111.5395635
111.5395635
111.5395634
111.5395634
111.5395634
111.5395633
111.5395633
111.5395633
111.5395632
111.5395632
111.5395631
111.539563
111.539563
111.5395629
111.5395628
111.5395627
111.5395626
111.5395625
111.5395624
111.5395623
111.5395622
111.5395621
111.5395619
111.5395618
111.5395616
111.5395614
111.5395613
111.539561
111.5395608
111.5395606
111.5395601
111.539562
111.5395412
111.5396822
111.5389484
111.5416398
111.538
111.538
111.5395527
111.5395527
111.5395527
111.5395526
111.5395526
111.5395526
111.5395526
111.5395525
111.5395525
111.5395524
111.5395524
111.5395523
111.5395522
111.5395522
111.5395521
111.539552
111.5395519
111.5395518
111.5395517
111.5395516
111.5395515
111.5395514
111.5395512
111.5395511
111.5395509
111.5395508
111.5395506
111.5395504
111.5395502
111.53955
111.5395497
111.5395495
111.539549
111.5395506
111.5395317
111.5396644
111.5389547
111.5415852
111.538
111.538
111.5395419
111.5395419
111.5395419
111.5395418
111.5395418
111.5395418
111.5395417
111.5395417
111.5395417
111.5395416
111.5395415
111.5395415
111.5395414
111.5395413
111.5395412
111.5395411
111.539541
111.5395409
111.5395408
111.5395407
111.5395406
111.5395404
111.5395403
111.5395401
111.53954
111.5395398
111.5395396
111.5395394
111.5395392
111.5395389
111.5395387
111.5395384
111.5395379
111.5395393
111.5395223
111.5396447
111.5389754
111.5414768
111.538
111.538
111.5395311
111.5395311
111.5395311
111.539531
111.539531
111.539531
111.5395309
111.5395309
111.5395308
111.5395308
111.5395307
111.5395306
111.5395306
111.5395305
111.5395304
111.5395303
111.5395302
111.53953
111.5395299
111.5395298
111.5395296
111.5395295
111.5395293
111.5395292
111.539529
111.5395288
111.5395286
111.5395284
111.5395281
111.5395279
111.5395276
111.5395273
111.5395269
111.539528
111.5395129
111.5396253
111.5389939
111.5413912
111.538
111.538
111.5395203
111.5395203
111.5395203
111.5395203
111.5395202
111.5395202
111.5395201
111.5395201
111.53952
111.53952
111.5395199
111.5395198
111.5395197
111.5395196
111.5395195
111.5395194
111.5395193
111.5395192
111.539519
111.5395189
111.5395187
111.5395186
111.5395184
111.5395182
111.539518
111.5395178
111.5395176
111.5395174
111.5395171
111.5395169
111.5395166
111.5395163
111.5395159
111.5395168
111.5395035
111.5396052
111.5390151
111.5413098
111.538
111.538
111.5395095
111.5395095
111.5395095
111.5395095
111.5395094
111.5395094
111.5395093
111.5395093
111.5395092
111.5395092
111.5395091
111.539509
111.5395089
111.5395088
111.5395087
111.5395085
111.5395084
111.5395083
111.5395081
111.539508
111.5395078
111.5395076
111.5395075
111.5395073
111.5395071
111.5395069
111.5395066
111.5395064
111.5395061
111.5395059
111.5395056
111.5395053
111.5395049
111.5395056
111.5394941
111.5395854
111.5390365
111.5411878
111.538
111.538
111.5394987
111.5394987
111.5394987
111.5394987
111.5394987
111.5394986
111.5394986
111.5394985
111.5394984
111.5394984
111.5394983
111.5394982
111.5394981
111.539498
111.5394978
111.5394977
111.5394976
111.5394974
111.5394973
111.5394971
111.5394969
111.5394967
111.5394966
111.5394963
111.5394961
111.5394959
111.5394957
111.5394954
111.5394952
111.5394949
111.5394946
111.5394943
111.5394939
111.5394944
111.5394846
111.5395661
111.5390572
111.5409381
111.538
111.538
111.539488
111.539488
111.539488
111.5394879
111.5394879
111.5394878
111.5394878
111.5394877
111.5394876
111.5394876
111.5394875
111.5394874
111.5394873
111.5394871
111.539487
111.5394869
111.5394867
111.5394866
111.5394864
111.5394862
111.539486
111.5394858
111.5394856
111.5394854
111.5394852
111.539485
111.5394847
111.5394845
111.5394842
111.5394839
111.5394836
111.5394833
111.539483
111.5394833
111.5394749
111.539547
111.5390785
111.54059
111.538
111.538
111.5394772
111.5394772
111.5394772
111.5394772
111.5394771
111.5394771
111.539477
111.539477
111.5394769
111.5394768
111.5394767
111.5394766
111.5394765
111.5394763
111.5394762
111.539476
111.5394759
111.5394757
111.5394755
111.5394754
111.5394752
111.539475
111.5394747
111.5394745
111.5394743
111.539474
111.5394738
111.5394735
111.5394733
111.539473
111.5394727
111.5394724
111.539472
111.5394722
111.5394651
111.5395286
111.539098
111.5402067
111.538
111.538
111.5394665
111.5394665
111.5394665
111.5394664
111.5394664
111.5394663
111.5394663
111.5394662
111.5394661
111.539466
111.5394659
111.5394658
111.5394657
111.5394655
111.5394654
111.5394652
111.5394651
111.5394649
111.5394647
111.5394645
111.5394643
111.5394641
111.5394639
111.5394636
111.5394634
111.5394631
111.5394629
111.5394626
111.5394623
111.539462
111.5394617
111.5394614
111.5394611
111.5394611
111.5394553
111.5395109
111.5391158
111.5398267
111.538
111.538
111.5394557
111.5394557
111.5394557
111.5394557
111.5394556
111.5394556
111.5394555
111.5394554
111.5394554
111.5394553
111.5394551
111.539455
111.5394549
111.5394547
111.5394546
111.5394544
111.5394542
111.5394541
111.5394539
111.5394537
111.5394534
111.5394532
111.539453
111.5394527
111.5394525
111.5394522
111.539452
111.5394517
111.5394514
111.5394511
111.5394508
111.5394505
111.5394502
111.5394501
111.5394453
111.5394935
111.5391334
111.5394642
111.538
111.538
111.539445
111.539445
111.539445
111.539445
111.5394449
111.5394449
111.5394448
111.5394447
111.5394446
111.5394445
111.5394444
111.5394443
111.5394441
111.539444
111.5394438
111.5394436
111.5394434
111.5394432
111.539443
111.5394428
111.5394426
111.5394424
111.5394421
111.5394419
111.5394416
111.5394413
111.5394411
111.5394408
111.5394405
111.5394402
111.5394399
111.5394396
111.5394392
111.5394391
111.5394352
111.5394762
111.5391522
111.5391274
111.538
111.538
111.5394343
111.5394343
111.5394343
111.5394342
111.5394342
111.5394341
111.5394341
111.539434
111.5394339
111.5394338
111.5394336
111.5394335
111.5394334
111.5394332
111.539433
111.5394328
111.5394326
111.5394324
111.5394322
111.539432
111.5394318
111.5394315
111.5394313
111.539431
111.5394307
111.5394304
111.5394302
111.5394299
111.5394296
111.5394293
111.539429
111.5394287
111.5394283
111.5394282
111.5394251
111.5394595
111.5391691
111.5388262
111.538
111.538
111.5394236
111.5394236
111.5394236
111.5394235
111.5394235
111.5394234
111.5394233
111.5394233
111.5394232
111.539423
111.5394229
111.5394228
111.5394226
111.5394224
111.5394223
111.5394221
111.5394219
111.5394216
111.5394214
111.5394212
111.5394209
111.5394207
111.5394204
111.5394201
111.5394199
111.5394196
111.5394193
111.539419
111.5394187
111.5394184
111.5394181
111.5394177
111.5394174
111.5394172
111.5394149
111.5394433
111.5391846
111.5385652
111.538
111.538
111.5394129
111.5394129
111.5394129
111.5394128
111.5394128
111.5394127
111.5394126
111.5394125
111.5394124
111.5394123
111.5394122
111.539412
111.5394119
111.5394117
111.5394115
111.5394113
111.5394111
111.5394109
111.5394106
111.5394104
111.5394101
111.5394099
111.5394096
111.5394093
111.539409
111.5394087
111.5394084
111.5394081
111.5394078
111.5394075
111.5394072
111.5394068
111.5394065
111.5394063
111.5394046
111.5394274
111.5391992
111.5383457
111.538
111.538
111.5394022
111.5394022
111.5394022
111.5394022
111.5394021
111.539402
111.539402
111.5394019
111.5394017
111.5394016
111.5394015
111.5394013
111.5394011
111.539401
111.5394008
111.5394006
111.5394003
111.5394001
111.5393999
111.5393996
111.5393993
111.539399
111.5393988
111.5393985
111.5393982
111.5393979
111.5393975
111.5393972
111.5393969
111.5393966
111.5393963
111.539396
111.5393957
111.5393953
111.5393943
111.5394117
111.5392138
111.5381662
111.538
111.538
111.5393916
111.5393916
111.5393915
111.5393915
111.5393914
111.5393914
111.5393913
111.5393912
111.5393911
111.5393909
111.5393908
111.5393906
111.5393904
111.5393902
111.53939
111.5393898
111.5393896
111.5393893
111.5393891
111.5393888
111.5393885
111.5393882
111.5393879
111.5393876
111.5393873
111.539387
111.5393867
111.5393864
111.539386
111.5393857
111.5393854
111.5393851
111.5393848
111.5393844
111.5393839
111.5393963
111.5392288
111.5380192
111.538
111.538
111.5393809
111.5393809
111.5393809
111.5393809
111.5393808
111.5393807
111.5393806
111.5393805
111.5393804
111.5393803
111.5393801
111.5393799
111.5393797
111.5393795
111.5393793
111.5393791
111.5393789
111.5393786
111.5393783
111.539378
111.5393778
111.5393775
111.5393771
111.5393768
111.5393765
111.5393762
111.5393758
111.5393755
111.5393752
111.5393748
111.5393745
111.5393742
111.5393739
111.5393735
111.5393734
111.5393812
111.5392428
111.538
111.538
111.538
111.5393703
111.5393703
111.5393703
111.5393702
111.5393702
111.5393701
111.53937
111.5393699
111.5393697
111.5393696
111.5393694
111.5393693
111.5393691
111.5393689
111.5393686
111.5393684
111.5393681
111.5393679
111.5393676
111.5393673
111.539367
111.5393667
111.5393663
111.539366
111.5393657
111.5393653
111.539365
111.5393646
111.5393643
111.539364
111.5393636
111.5393633
111.539363
111.5393626
111.5393629
111.5393665
111.5392559
111.538
111.538
111.538
111.5393597
111.5393597
111.5393596
111.5393596
111.5393595
111.5393594
111.5393594
111.5393592
111.5393591
111.539359
111.5393588
111.5393586
111.5393584
111.5393582
111.539358
111.5393577
111.5393574
111.5393572
111.5393569
111.5393566
111.5393562
111.5393559
111.5393556
111.5393552
111.5393549
111.5393545
111.5393542
111.5393538
111.5393534
111.5393531
111.5393528
111.5393524
111.5393521
111.5393517
111.5393523
111.5393521
111.539268
111.538
111.538
111.538
111.5393491
111.5393491
111.539349
111.539349
111.5393489
111.5393488
111.5393487
111.5393486
111.5393485
111.5393483
111.5393482
111.539348
111.5393478
111.5393475
111.5393473
111.539347
111.5393467
111.5393465
111.5393461
111.5393458
111.5393455
111.5393451
111.5393448
111.5393444
111.5393441
111.5393437
111.5393433
111.539343
111.5393426
111.5393422
111.5393419
111.5393416
111.5393412
111.5393408
111.5393417
111.539338
111.5392789
111.538
111.538
111.538
111.5393385
111.5393385
111.5393385
111.5393384
111.5393383
111.5393382
111.5393381
111.539338
111.5393379
111.5393377
111.5393375
111.5393373
111.5393371
111.5393369
111.5393366
111.5393364
111.5393361
111.5393358
111.5393354
111.5393351
111.5393348
111.5393344
111.539334
111.5393337
111.5393333
111.5393329
111.5393325
111.5393321
111.5393317
111.5393314
111.539331
111.5393307
111.5393304
111.5393299
111.5393311
111.5393242
111.5392889
111.538
111.538
111.538
111.5393279
111.5393279
111.5393279
111.5393278
111.5393278
111.5393277
111.5393276
111.5393274
111.5393273
111.5393271
111.5393269
111.5393267
111.5393265
111.5393263
111.539326
111.5393257
111.5393254
111.5393251
111.5393248
111.5393244
111.5393241
111.5393237
111.5393233
111.5393229
111.5393225
111.5393221
111.5393217
111.5393213
111.5393209
111.5393205
111.5393201
111.5393198
111.5393195
111.539319
111.5393203
111.5393106
111.539298
111.538
111.538
111.538
111.5393174
111.5393174
111.5393173
111.5393173
111.5393172
111.5393171
111.539317
111.5393169
111.5393167
111.5393165
111.5393164
111.5393161
111.5393159
111.5393157
111.5393154
111.5393151
111.5393148
111.5393144
111.5393141
111.5393137
111.5393134
111.539313
111.5393126
111.5393121
111.5393117
111.5393113
111.5393109
111.5393105
111.5393101
111.5393097
111.5393093
111.5393089
111.5393086
111.5393081
111.5393096
111.5392973
111.5393062
111.538
111.538
111.538
111.5393068
111.5393068
111.5393068
111.5393067
111.5393067
111.5393066
111.5393065
111.5393063
111.5393062
111.539306
111.5393058
111.5393056
111.5393053
111.5393051
111.5393048
111.5393045
111.5393042
111.5393038
111.5393034
111.5393031
111.5393027
111.5393023
111.5393018
111.5393014
111.539301
111.5393005
111.5393001
111.5392996
111.5392992
111.5392988
111.5392984
111.539298
111.5392977
111.5392972
111.5392988
111.5392841
111.539314
111.538
111.538
111.538
111.5392963
111.5392963
111.5392963
111.5392962
111.5392961
111.539296
111.5392959
111.5392958
111.5392956
111.5392954
111.5392952
111.539295
111.5392948
111.5392945
111.5392942
111.5392939
111.5392936
111.5392932
111.5392928
111.5392924
111.539292
111.5392916
111.5392911
111.5392907
111.5392902
111.5392897
111.5392893
111.5392888
111.5392884
111.5392879
111.5392875
111.5392871
111.5392868
111.5392863
111.539288
111.5392711
111.5393214
111.538
111.538
111.538
111.5392858
111.5392858
111.5392858
111.5392857
111.5392856
111.5392855
111.5392854
111.5392853
111.5392851
111.5392849
111.5392847
111.5392845
111.5392842
111.539284
111.5392837
111.5392833
111.539283
111.5392826
111.5392822
111.5392818
111.5392813
111.5392809
111.5392804
111.5392799
111.5392795
111.539279
111.5392785
111.539278
111.5392775
111.5392771
111.5392766
111.5392762
111.5392759
111.5392754
111.5392771
111.5392581
111.539329
111.538
111.538
111.538
111.5392753
111.5392753
111.5392753
111.5392752
111.5392751
111.539275
111.5392749
111.5392748
111.5392746
111.5392744
111.5392742
111.539274
111.5392737
111.5392734
111.5392731
111.5392728
111.5392724
111.539272
111.5392716
111.5392712
111.5392707
111.5392702
111.5392697
111.5392692
111.5392687
111.5392682
111.5392677
111.5392672
111.5392667
111.5392662
111.5392657
111.5392653
111.5392649
111.5392644
111.5392663
111.5392452
111.5393371
111.538
111.538
111.538
111.5392649
111.5392649
111.5392648
111.5392648
111.5392647
111.5392646
111.5392645
111.5392643
111.5392641
111.5392639
111.5392637
111.5392635
111.5392632
111.5392629
111.5392626
111.5392622
111.5392619
111.5392615
111.539261
111.5392606
111.5392601
111.5392596
111.5392591
111.5392585
111.539258
111.5392575
111.5392569
111.5392564
111.5392558
111.5392553
111.5392549
111.5392544
111.539254
111.5392535
111.5392554
111.5392322
111.5393465
111.538
111.538
111.538
111.5392544
111.5392544
111.5392544
111.5392543
111.5392542
111.5392541
111.539254
111.5392539
111.5392537
111.5392535
111.5392533
111.539253
111.5392527
111.5392524
111.5392521
111.5392517
111.5392514
111.5392509
111.5392505
111.53925
111.5392495
111.539249
111.5392484
111.5392479
111.5392473
111.5392467
111.5392461
111.5392456
111.539245
111.5392445
111.5392439
111.5392435
111.5392431
111.5392425
111.5392445
111.5392191
111.5393572
111.538
111.538
111.538
111.539244
111.539244
111.5392439
111.5392439
111.5392438
111.5392437
111.5392436
111.5392434
111.5392432
111.5392431
111.5392428
111.5392426
111.5392423
111.539242
111.5392416
111.5392413
111.5392409
111.5392404
111.53924
111.5392395
111.5392389
111.5392384
111.5392378
111.5392372
111.5392366
111.539236
111.5392354
111.5392347
111.5392341
111.5392336
111.539233
111.5392325
111.5392321
111.5392316
111.5392335
111.539206
111.5393696
111.538
111.538
111.538
111.5392336
111.5392336
111.5392335
111.5392335
111.5392334
111.5392333
111.5392332
111.539233
111.5392328
111.5392326
111.5392324
111.5392322
111.5392319
111.5392315
111.5392312
111.5392308
111.5392304
111.5392299
111.5392295
111.5392289
111.5392284
111.5392278
111.5392272
111.5392266
111.5392259
111.5392252
111.5392246
111.5392239
111.5392233
111.5392227
111.5392221
111.5392216
111.5392211
111.5392206
111.5392226
111.5391927
111.5393835
111.538
111.538
111.538
111.5392232
111.5392232
111.5392231
111.5392231
111.539223
111.5392229
111.5392228
111.5392226
111.5392224
111.5392222
111.539222
111.5392218
111.5392215
111.5392211
111.5392208
111.5392204
111.53922
111.5392195
111.539219
111.5392184
111.5392179
111.5392173
111.5392166
111.5392159
111.5392152
111.5392145
111.5392138
111.5392131
111.5392124
111.5392118
111.5392111
111.5392106
111.5392101
111.5392095
111.5392116
111.5391796
111.5393983
111.538
111.538
111.538
111.5392128
111.5392128
111.5392128
111.5392127
111.5392126
111.5392125
111.5392124
111.5392123
111.5392121
111.5392119
111.5392116
111.5392114
111.5392111
111.5392108
111.5392104
111.53921
111.5392096
111.5392091
111.5392085
111.539208
111.5392074
111.5392067
111.539206
111.5392053
111.5392046
111.5392038
111.5392031
111.5392023
111.5392016
111.5392008
111.5392002
111.5391996
111.539199
111.5391985
111.5392005
111.5391667
111.5394132
111.538
111.538
111.538
111.5392025
111.5392025
111.5392024
111.5392024
111.5392023
111.5392022
111.539202
111.5392019
111.5392017
111.5392015
111.5392013
111.539201
111.5392007
111.5392004
111.5392
111.5391996
111.5391992
111.5391987
111.5391981
111.5391976
111.5391969
111.5391962
111.5391955
111.5391948
111.539194
111.5391931
111.5391923
111.5391915
111.5391907
111.5391899
111.5391892
111.5391885
111.539188
111.5391874
111.5391894
111.5391535
111.5394278
111.538
111.538
111.538
111.5391921
111.5391921
111.5391921
111.539192
111.5391919
111.5391918
111.5391917
111.5391916
111.5391914
111.5391912
111.539191
111.5391907
111.5391904
111.5391901
111.5391897
111.5391893
111.5391888
111.5391883
111.5391878
111.5391872
111.5391865
111.5391858
111.539185
111.5391842
111.5391834
111.5391825
111.5391816
111.5391807
111.5391798
111.5391789
111.5391782
111.5391774
111.5391768
111.5391762
111.5391784
111.5391404
111.5394391
111.538
111.538
111.538
111.5391818
111.5391818
111.5391818
111.5391817
111.5391816
111.5391815
111.5391814
111.5391813
111.5391811
111.5391809
111.5391807
111.5391804
111.5391801
111.5391798
111.5391794
111.539179
111.5391785
111.539178
111.5391774
111.5391768
111.5391761
111.5391753
111.5391745
111.5391737
111.5391728
111.5391718
111.5391709
111.5391699
111.5391689
111.539168
111.5391671
111.5391663
111.5391656
111.5391649
111.5391673
111.5391274
111.5394441
111.538
111.538
111.538
111.5391715
111.5391715
111.5391715
111.5391714
111.5391713
111.5391712
111.5391711
111.539171
111.5391708
111.5391706
111.5391704
111.5391701
111.5391699
111.5391695
111.5391691
111.5391687
111.5391683
111.5391677
111.5391671
111.5391665
111.5391658
111.539165
111.5391641
111.5391632
111.5391622
111.5391612
111.5391601
111.5391591
111.539158
111.539157
111.539156
111.5391551
111.5391544
111.5391535
111.5391563
111.5391128
111.5394461
111.538
111.538
111.538
111.5391612
111.5391612
111.5391612
111.5391611
111.539161
111.539161
111.5391608
111.5391607
111.5391606
111.5391604
111.5391601
111.5391599
111.5391596
111.5391593
111.5391589
111.5391585
111.539158
111.5391575
111.5391569
111.5391562
111.5391554
111.5391546
111.5391537
111.5391527
111.5391517
111.5391506
111.5391494
111.5391483
111.5391471
111.5391459
111.5391448
111.5391438
111.539143
111.5391418
111.5391459
111.5390955
111.5394452
111.538
111.538
111.538
111.5391509
111.5391509
111.5391509
111.5391508
111.5391508
111.5391507
111.5391506
111.5391505
111.5391503
111.5391501
111.5391499
111.5391497
111.5391494
111.5391491
111.5391487
111.5391483
111.5391478
111.5391473
111.5391467
111.539146
111.5391452
111.5391443
111.5391434
111.5391424
111.5391412
111.53914
111.5391388
111.5391375
111.5391361
111.5391348
111.5391336
111.5391324
111.5391314
111.5391299
111.5391389
111.5390797
111.5394432
111.538
111.538
111.538
111.5391407
111.5391407
111.5391406
111.5391406
111.5391405
111.5391404
111.5391404
111.5391402
111.5391401
111.5391399
111.5391397
111.5391395
111.5391392
111.5391389
111.5391386
111.5391381
111.5391377
111.5391371
111.5391365
111.5391358
111.539135
111.5391341
111.5391331
111.539132
111.5391308
111.5391295
111.5391281
111.5391267
111.5391252
111.5391237
111.5391223
111.5391209
111.5391203
111.5391212
111.5391484
111.5390688
111.5394453
111.538
111.538
111.538
111.5391304
111.5391304
111.5391304
111.5391304
111.5391303
111.5391302
111.5391301
111.53913
111.5391299
111.5391297
111.5391295
111.5391293
111.5391291
111.5391288
111.5391284
111.539128
111.5391276
111.539127
111.5391264
111.5391257
111.5391249
111.5391239
111.5391229
111.5391217
111.5391204
111.539119
111.5391175
111.5391159
111.5391142
111.5391126
111.539111
111.5391103
111.5391142
111.5391253
111.539145
111.5388892
111.5393728
111.538
111.538
111.538
111.5391202
111.5391202
111.5391202
111.5391201
111.5391201
111.53912
111.5391199
111.5391198
111.5391197
111.5391196
111.5391194
111.5391192
111.5391189
111.5391187
111.5391183
111.539118
111.5391175
111.539117
111.5391164
111.5391156
111.5391148
111.5391138
111.5391128
111.5391115
111.5391102
111.5391086
111.539107
111.5391052
111.5391034
111.5391016
111.539101
111.5391042
111.5391113
111.5390461
111.5385582
111.5373836
111.5385255
111.538
111.538
111.538
111.53911
111.53911
111.5391099
111.5391099
111.5391099
111.5391098
111.5391097
111.5391096
111.5391095
111.5391094
111.5391093
111.5391091
111.5391089
111.5391086
111.5391083
111.5391079
111.5391075
111.539107
111.5391064
111.5391056
111.5391048
111.5391038
111.5391027
111.5391014
111.5390999
111.5390983
111.5390966
111.5390947
111.539093
111.5390921
111.5390936
111.539087
111.5389388
111.5378769
111.533844
111.5367151
111.533759
111.538
111.538
111.538
111.5390998
111.5390997
111.5390997
111.5390997
111.5390997
111.5390996
111.5390995
111.5390995
111.5390994
111.5390993
111.5390991
111.539099
111.5390988
111.5390986
111.5390983
111.5390979
111.5390975
111.539097
111.5390964
111.5390957
111.5390949
111.5390939
111.5390927
111.5390914
111.5390899
111.5390883
111.5390867
111.539085
111.5390834
111.5390813
111.539059
111.538858
111.5372502
111.538
111.538
111.538
111.538
111.538
111.538
111.538
111.5390895
111.5390895
111.5390895
111.5390895
111.5390895
111.5390894
111.5390894
111.5390893
111.5390892
111.5390891
111.539089
111.5390889
111.5390887
111.5390885
111.5390883
111.539088
111.5390876
111.5390872
111.5390866
111.5390859
111.5390851
111.5390841
111.539083
111.5390818
111.5390805
111.5390792
111.5390774
111.5390735
111.5390636
111.5390223
111.5387895
111.5370331
111.538
111.538
111.538
111.538
111.538
111.538
111.538
111.538
111.5390793
111.5390793
111.5390793
111.5390793
111.5390793
111.5390792
111.5390792
111.5390792
111.5390791
111.539079
111.5390789
111.5390788
111.5390787
111.5390785
111.5390783
111.5390781
111.5390778
111.5390773
111.5390768
111.5390762
111.5390755
111.5390748
111.5390741
111.5390733
111.5390721
111.5390689
111.5390582
111.5390005
111.5387294
111.5381895
111.5366425
111.538
111.538
111.538
111.538
111.538
111.538
111.538
111.538
111.538
111.5390691
111.5390691
111.5390691
111.5390691
111.5390691
111.5390691
111.5390691
111.5390691
111.539069
111.539069
111.5390689
111.5390689
111.5390688
111.5390687
111.5390686
111.5390684
111.5390682
111.539068
111.5390678
111.5390676
111.5390674
111.5390671
111.5390663
111.5390632
111.5390514
111.5389756
111.5382207
111.5360848
111.538
111.538
111.538
111.538
111.538
111.538
111.538
111.538
111.538
111.538
111.538
111.538
111.5390596
111.5390596
111.5390596
111.5390596
111.5390596
111.5390596
111.5390596
111.5390597
111.5390597
111.5390597
111.5390597
111.5390597
111.5390598
111.5390599
111.53906
111.5390601
111.5390602
111.5390604
111.5390605
111.5390601
111.5390582
111.5390505
111.5390105
111.5387388
111.5373402
111.5370653
111.538
111.538
111.538
111.538
111.538
111.538
111.538
111.538
111.538
111.538
111.538
111.538
111.538
111.538
111.5390529
111.5390528
111.5390527
111.5390526
111.5390525
111.5390524
111.5390523
111.5390521
111.5390519
111.5390516
111.5390513
111.5390509
111.5390505
111.5390503
111.5390493
111.5390483
111.5390463
111.5390383
111.5390018
111.5388492
111.5382382
111.5368017
111.538
111.538
111.538
111.538
111.538
111.538
111.538
111.538
111.538
111.538
111.538
111.538
111.538
111.538
111.538
111.538
111.538
111.538
111.5381264
111.5382128
111.5382095
111.5382136
111.538227
111.5382143
111.5382017
111.5381936
111.5381871
111.5381811
111.5381737
111.5381618
111.538144
111.5381184
111.5380597
111.538
111.538
111.538
111.538
111.538
111.538
111.538
111.538
111.538
111.538
111.538
111.538
111.538
111.538
111.538
111.538
111.538
111.538
111.538
111.538
111.538
111.538
111.538
111.538
111.538
111.538
111.538
111.538
111.538
111.538
111.538
111.538
111.538
111.538
111.538
111.538
111.538
111.538
111.538
111.538
111.538
111.538
111.538
111.538
111.538
111.538
111.538
111.538
111.538
111.538
111.538
111.538
111.538
111.538
111.538
111.538
111.538
111.538
111.538
111.538
111.538
111.538
111.538
111.538
111.538
111.538
111.538
111.538
111.538
111.538
111.538
111.538
111.538
111.538
111.538
111.538
111.538
111.538
111.538
111.538
111.538
111.538
111.538
111.538
111.538
111.538
111.538
111.538
111.538
111.538
111.538
111.538
111.538
111.538
111.538
111.538
111.538
111.538
111.538
111.538
111.538
111.538
111.538
111.538
111.538
111.538
111.538
111.538
111.538
111.538
111.538
111.538
111.538
111.538
111.538
111.538
111.538
111.538
111.538
111.538
111.538
111.538
111.538
111.538
111.538
111.538
111.538
111.538
111.538
111.538
111.538
111.538
111.538
111.538
111.538
111.538
111.538
111.538
111.538
111.538
111.538
111.538
111.538
111.538
111.538
111.6903112
111.7004819
111.7075979
111.7078262
111.7047374
111.7005793
111.694324
111.6857784
111.6750135
111.6618991
111.6457726
111.6257127
111.6011242
111.5735303
111.54896
111.538
111.538
111.538
111.538
111.538
111.538
111.538
111.538
111.538
111.538
111.538
111.538
111.538
111.538
111.538
111.538
111.538
111.538
111.538
111.538
111.538
111.538
111.538
111.538
111.538
111.8941597
111.9019818
111.9042999
111.9040309
111.9032442
111.9023559
111.9011633
111.899634
111.8975726
111.8948056
111.8909425
111.8851699
111.8759063
111.8599465
111.829696
111.7593606
111.6098273
111.5449135
111.538
111.538
111.538
111.538
111.538
111.538
111.538
111.538
111.538
111.538
111.5380921
111.538
111.538
111.538
111.538
111.538
111.538
111.538
111.538
111.538
111.538
111.538
111.9183968
111.9200825
111.9204495
111.9203843
111.9202302
111.9200632
111.919838
111.9195454
111.9191396
111.9185664
111.917717
111.9163619
111.9140243
111.9096914
111.9011147
111.8837564
111.8513682
111.7933855
111.6912202
111.6154092
111.5860944
111.576849
111.5757173
111.5784541
111.5831262
111.5890899
111.6023264
111.6447933
111.729143
111.7806208
111.7452331
111.6413785
111.538
111.538
111.538
111.5754152
111.9148689
111.9283896
111.7160107
112.067563
111.9220316
111.9222089
111.9222354
111.9222274
111.9222118
111.9221946
111.9221712
111.9221396
111.922094
111.9220255
111.9219161
111.9217264
111.9213673
111.9206278
111.9189833
111.9151393
111.9066399
111.8913558