/*--------------------------------*- C++ -*----------------------------------*\
| =========                 |                                                 |
| \\      /  F ield         | OpenFOAM: The Open Source CFD Toolbox           |
|  \\    /   O peration     | Version:  v1912                                 |
|   \\  /    A nd           | Website:  www.openfoam.com                      |
|    \\/     M anipulation  |                                                 |
\*---------------------------------------------------------------------------*/
FoamFile
{
    version     2.0;
    format      ascii;
    class       volVectorField;
    location    "0.5";
    object      U.gas;
}
// * * * * * * * * * * * * * * * * * * * * * * * * * * * * * * * * * * * * * //

dimensions      [0 1 -1 0 0 0 0];


internalField   nonuniform List<vector> 
4800
(
(0.0002554641707 3.213023183e-19 0.0124075353)
(0.0004407133415 2.816144883e-19 0.01240566842)
(0.000694299509 -1.22151173e-17 0.0124049532)
(0.0009590608134 -5.894854037e-19 0.01240417688)
(0.001228884239 4.505544041e-19 0.01240322354)
(0.001502449138 3.483188368e-19 0.01240207275)
(0.001779525465 3.232529083e-19 0.01240072321)
(0.002060230579 6.485806963e-19 0.01239918152)
(0.002344805639 -1.11074082e-17 0.0123974582)
(0.002633531678 -2.573056656e-18 0.01239556587)
(0.002926692721 1.101160468e-17 0.01239351858)
(0.00322455768 1.423964072e-17 0.01239133119)
(0.003527371227 3.49360393e-18 0.01238901884)
(0.003835349657 1.881495007e-19 0.0123865964)
(0.004148680058 1.5195942e-19 0.01238407793)
(0.004467522086 3.121546691e-19 0.01238147598)
(0.004792012111 3.353832755e-19 0.01237880089)
(0.00512226974 3.432608066e-19 0.01237605998)
(0.00545840686 3.371619282e-19 0.01237325661)
(0.005800539459 3.173710178e-19 0.01237038908)
(0.00614880259 3.202065454e-19 0.0123674494)
(0.00650336898 3.229948688e-19 0.01236442187)
(0.006864471973 3.186335463e-19 0.01236128122)
(0.007232433778 3.101806218e-19 0.0123579905)
(0.007607700454 3.258959848e-19 0.01235449822)
(0.007990885759 3.186926411e-19 0.01235073464)
(0.008382827221 3.271648333e-19 0.01234660653)
(0.008784659845 3.548903324e-19 0.01234198955)
(0.009197916536 3.518703982e-19 0.01233671656)
(0.009624671004 3.438594665e-19 0.01233055883)
(0.01006775176 3.454939855e-19 0.01232319416)
(0.01053108038 3.241430355e-19 0.01231415058)
(0.0110202505 2.187104963e-19 0.01230269363)
(0.01154349729 1.277510322e-18 0.01228765884)
(0.01211428295 -4.495090593e-18 0.01226654304)
(0.0127445856 -5.113117792e-18 0.01224220349)
(0.01352607984 -3.257369647e-18 0.0121603545)
(0.01391537425 -1.137833319e-18 0.01248809493)
(0.0185158888 1.566448993e-19 0.00885250377)
(0.01137897417 5.131573952e-19 0.02011752222)
(0.0002683397687 3.341384531e-19 0.0237672213)
(0.000460442029 2.856858285e-19 0.02376323822)
(0.0007236235763 -1.273461122e-17 0.02376117051)
(0.000998715012 -6.5026757e-19 0.0237588224)
(0.001279233688 4.723224922e-19 0.02375591151)
(0.001563766574 3.664321753e-19 0.02375238667)
(0.001852066415 3.365076318e-19 0.02374824765)
(0.002144258976 6.684552435e-19 0.02374351582)
(0.002440604819 -1.154025524e-17 0.02373822338)
(0.002741409938 -2.757891092e-18 0.02373240851)
(0.003046986049 1.140701299e-17 0.02372611376)
(0.00335763093 1.485844425e-17 0.02371938402)
(0.003673618629 3.756033894e-18 0.02371226502)
(0.003995194952 2.252025921e-19 0.02370480164)
(0.004322576434 1.505721018e-19 0.02369703625)
(0.004655952045 3.225462279e-19 0.0236890067)
(0.004995487356 3.505848231e-19 0.02368074417)
(0.005341331186 3.394019976e-19 0.02367227065)
(0.005693624838 3.333705685e-19 0.02366359613)
(0.006052514217 3.265829602e-19 0.02365471533)
(0.006418165186 3.352044877e-19 0.02364560395)
(0.006790782674 3.32714755e-19 0.02363621419)
(0.007170634217 3.374641792e-19 0.02362646947)
(0.007558078895 3.361237399e-19 0.02361625778)
(0.007953603043 3.403797731e-19 0.02360542327)
(0.008357864757 3.651072608e-19 0.02359375506)
(0.008771750258 3.73209616e-19 0.02358097177)
(0.00919644695 3.540456295e-19 0.02356669916)
(0.009633540923 3.522511755e-19 0.02355043612)
(0.01008515189 3.560384843e-19 0.02353150074)
(0.01055412783 3.689440226e-19 0.02350894018)
(0.01104433836 3.421492834e-19 0.02348137417)
(0.01156112847 1.835669216e-19 0.02344669943)
(0.01211200654 1.3186891e-18 0.02340165763)
(0.01270830347 -4.499648949e-18 0.02333946848)
(0.01336496673 -5.297103946e-18 0.02326476429)
(0.0141814391 -3.597090198e-18 0.02301368345)
(0.01474397137 -1.199522775e-18 0.02390885195)
(0.01646551875 1.81909398e-19 0.01534837431)
(0.008910204501 5.503500349e-19 0.0460617355)
(0.0002680577012 3.164431504e-19 0.02258099415)
(0.0004598867061 2.888007783e-19 0.0225765754)
(0.0007225773515 -1.273873722e-17 0.02257332061)
(0.0009971022507 -6.489070371e-19 0.02256939388)
(0.001277077149 4.74542554e-19 0.02256446945)
(0.001561104833 3.632351987e-19 0.02255848624)
(0.001848942282 3.369481891e-19 0.02255145214)
(0.002140717543 6.681392429e-19 0.02254340579)
(0.002436693542 -1.154365982e-17 0.02253440221)
(0.002737177949 -2.753691042e-18 0.02252450624)
(0.003042483309 1.141931638e-17 0.02251378964)
(0.003352907633 1.486376159e-17 0.02250232813)
(0.003668724308 3.753021612e-18 0.02249019874)
(0.00399017733 2.135848245e-19 0.02247747722)
(0.004317480031 1.563439137e-19 0.02246423509)
(0.004650816539 3.215941042e-19 0.02245053645)
(0.004990345685 3.489958101e-19 0.02243643422)
(0.005336207344 3.271925366e-19 0.02242196608)
(0.005688531352 3.262532503e-19 0.02240714966)
(0.006047449207 3.359695181e-19 0.02239197714)
(0.00641310891 3.494168705e-19 0.02237640896)
(0.006785693382 3.324263716e-19 0.02236036644)
(0.007165443025 3.331700813e-19 0.022343723)
(0.00755268323 3.338612405e-19 0.02232629328)
(0.007947857911 3.506751502e-19 0.02230781941)
(0.008351570563 3.591241348e-19 0.02228795306)
(0.008764635015 3.545506301e-19 0.02226623089)
(0.009188138966 3.610874396e-19 0.02224203964)
(0.009623524788 3.617441352e-19 0.02221456433)
(0.010072694 3.32673628e-19 0.02218270792)
(0.01053814431 3.089840937e-19 0.02214496121)
(0.01102315113 2.713354372e-19 0.02209918387)
(0.01153200954 2.426138664e-19 0.02204221368)
(0.01207037752 1.29499842e-18 0.02196928976)
(0.01264574798 -4.467504149e-18 0.02187110099)
(0.01326519435 -5.314109115e-18 0.02175203701)
(0.01396721335 -3.497484447e-18 0.02137118788)
(0.01457016827 -1.197077721e-18 0.02260230228)
(0.01505641711 3.619524382e-19 0.01233906361)
(0.007560002345 5.470666104e-19 0.05770523812)
(0.0002671960222 3.137846547e-19 0.02225096989)
(0.0004584259616 2.813160484e-19 0.02224617865)
(0.0007202446687 -1.273975928e-17 0.02224185853)
(0.0009938293371 -6.446584851e-19 0.02223637283)
(0.001272867046 4.70659533e-19 0.02222942227)
(0.001555988493 3.628726778e-19 0.02222095358)
(0.001842963896 3.364294351e-19 0.02221098893)
(0.00213392937 6.652009426e-19 0.0221995866)
(0.00242915334 -1.155081962e-17 0.02218682584)
(0.002728947504 -2.740031682e-18 0.02217279946)
(0.003033627107 1.14394511e-17 0.02215760952)
(0.003343491283 1.487501331e-17 0.02214136364)
(0.003658812774 3.733261039e-18 0.02212417148)
(0.003979832884 2.180501336e-19 0.02210614108)
(0.004306759891 1.555679845e-19 0.02208737479)
(0.004639770145 3.251335669e-19 0.02206796481)
(0.004979011573 3.41568994e-19 0.02204798802)
(0.00532460957 3.310647468e-19 0.02202750019)
(0.005676675372 3.346634903e-19 0.02200652943)
(0.006035317114 3.381179764e-19 0.02198506862)
(0.006400653845 3.532930766e-19 0.0219630668)
(0.006772832846 3.356209418e-19 0.02194041901)
(0.007152050687 3.527480065e-19 0.02191695431)
(0.007538578545 3.496140416e-19 0.02189242127)
(0.007932792481 3.483560999e-19 0.02186646969)
(0.008335209493 3.604737104e-19 0.02183862718)
(0.00874653031 3.600802299e-19 0.02180826789)
(0.009167689856 3.749330533e-19 0.02177456917)
(0.009599915965 3.477118976e-19 0.02173644935)
(0.01004479533 3.167571131e-19 0.02169247494)
(0.01050434135 3.16293951e-19 0.02164071736)
(0.01098104802 2.864671208e-19 0.02157852396)
(0.01147789008 1.764517997e-19 0.02150212999)
(0.01199818865 1.346777834e-18 0.02140609938)
(0.01254503438 -4.57446541e-18 0.0212805766)
(0.01311942501 -5.381218929e-18 0.02113197779)
(0.0137135169 -3.424737378e-18 0.02070249337)
(0.01420194014 -1.031768141e-18 0.02202826562)
(0.0141471152 4.219395105e-19 0.01131747601)
(0.00686759592 5.283456044e-19 0.06893209729)
(0.0002659856293 3.142209951e-19 0.021871739)
(0.0004563509482 2.880079037e-19 0.02186658645)
(0.000716969255 -1.274415191e-17 0.02186124773)
(0.000989299941 -6.42632915e-19 0.02185420904)
(0.00126709193 4.731362335e-19 0.02184521171)
(0.001549005311 3.632460511e-19 0.02183422107)
(0.001834827491 3.365578094e-19 0.02182127838)
(0.002124706227 6.622570655e-19 0.0218064644)
(0.002418918412 -1.156112876e-17 0.02178988448)
(0.002717781979 -2.723458517e-18 0.02177166081)
(0.003021616366 1.146077632e-17 0.0217519273)
(0.003330722703 1.488002721e-17 0.02173082514)
(0.003645373271 3.714248619e-18 0.02170849845)
(0.003965806103 2.112723708e-19 0.02168508967)
(0.004292222987 1.583917501e-19 0.02166073441)
(0.004624790093 3.181897761e-19 0.02163555569)
(0.004963640956 3.396504336e-19 0.02160965744)
(0.005308881757 3.356031009e-19 0.02158311714)
(0.005660598993 3.331612217e-19 0.02155597741)
(0.006018869676 3.326774334e-19 0.02152823658)
(0.006383774283 3.357860219e-19 0.02149983778)
(0.006755412659 3.372421239e-19 0.02147065634)
(0.007133923173 3.529363646e-19 0.02144048509)
(0.007519505338 3.56536713e-19 0.0214090167)
(0.007912446148 3.522153758e-19 0.02137582198)
(0.008313150261 3.607448683e-19 0.02134032264)
(0.008722173782 3.618475122e-19 0.02130175593)
(0.009140260618 3.710871775e-19 0.02125912754)
(0.009568378597 3.466784051e-19 0.02121114674)
(0.01000774861 3.04492516e-19 0.0211561351)
(0.01045985115 2.750264814e-19 0.02109189512)
(0.01092637647 3.09422809e-19 0.0210155172)
(0.01140904956 1.756930918e-19 0.0209230792)
(0.01190923844 1.320701738e-18 0.02080924545)
(0.01242679609 -4.690328446e-18 0.02066518334)
(0.01296031158 -5.427917172e-18 0.02049863397)
(0.01348029249 -3.327700046e-18 0.02007534444)
(0.01390944833 -8.352172043e-19 0.02135334828)
(0.01357275304 4.338212186e-19 0.01077651886)
(0.006452958113 5.272442599e-19 0.0795260474)
(0.0002644154823 3.148285149e-19 0.02149747832)
(0.0004536606875 2.830431889e-19 0.02149198507)
(0.0007127459377 -1.274805574e-17 0.02148564155)
(0.0009834945377 -6.324821563e-19 0.02147703926)
(0.001259720492 4.677622822e-19 0.02146596267)
(0.0015401151 3.62310223e-19 0.02145240112)
(0.001824485932 3.372450368e-19 0.02143641863)
(0.00211299541 6.584247239e-19 0.02141812097)
(0.002405931583 -1.157954681e-17 0.02139764164)
(0.002703620789 -2.699275698e-18 0.02137513402)
(0.003006388265 1.147893753e-17 0.02135076577)
(0.003314538153 1.486721874e-17 0.02132471376)
(0.00362834264 3.683858361e-18 0.02129715896)
(0.003948036126 2.110498385e-19 0.02126828094)
(0.004273812721 1.571497051e-19 0.02123825164)
(0.004605826296 3.141249139e-19 0.02120722846)
(0.004944192817 3.387707929e-19 0.02117534642)
(0.005288994891 3.317250725e-19 0.02114270922)
(0.005640288582 3.364774595e-19 0.02110937928)
(0.0059981126 3.33445262e-19 0.02107536635)
(0.006362499987 3.426107694e-19 0.02104061465)
(0.006733492424 3.503904117e-19 0.02100498815)
(0.007111157245 3.632072155e-19 0.02096825344)
(0.007495607139 3.554823059e-19 0.02093005976)
(0.007887022359 3.503116903e-19 0.02088991492)
(0.008285674981 3.605305046e-19 0.02084715581)
(0.008691954058 3.630520039e-19 0.02080091164)
(0.009106389306 3.66703636e-19 0.02075005691)
(0.009529668579 3.222447815e-19 0.0206931504)
(0.009962639804 2.841438628e-19 0.0206283553)
(0.01040627897 2.981410326e-19 0.02055333532)
(0.01086159163 3.184499301e-19 0.02046511967)
(0.01132940055 1.667340159e-19 0.02035991165)
(0.01180981613 1.316945377e-18 0.02023295285)
(0.01230083847 -4.755097104e-18 0.02007728321)
(0.01280009677 -5.429288223e-18 0.01990012744)
(0.0132708112 -3.241096981e-18 0.01950951817)
(0.01367233773 -7.327391641e-19 0.02066077694)
(0.01308690493 5.282551626e-19 0.0105727199)
(0.006092487301 5.007909004e-19 0.08968829595)
(0.0002624827817 3.148461742e-19 0.02112549411)
(0.0004503518323 2.879450381e-19 0.02111967706)
(0.0007075642311 -1.275239321e-17 0.02111232436)
(0.0009763909715 -6.207404197e-19 0.02110213337)
(0.001250719436 4.674849232e-19 0.02108893232)
(0.001529275119 3.607176264e-19 0.02107273742)
(0.001811888615 3.359614503e-19 0.02105363812)
(0.002098739832 6.537696541e-19 0.02103176752)
(0.002390130574 -1.159675264e-17 0.02100728934)
(0.002686397803 -2.66778337e-18 0.02098039026)
(0.002987874299 1.152945007e-17 0.02095127394)
(0.003294868436 1.486434471e-17 0.02092015547)
(0.003607652911 3.651595149e-18 0.02088725556)
(0.003926458411 2.033304896e-19 0.0208527942)
(0.004251470495 1.551037322e-19 0.02081698343)
(0.00458282897 3.148232852e-19 0.02078001935)
(0.004920629465 3.393676611e-19 0.02074207288)
(0.005264927126 3.336342487e-19 0.02070327955)
(0.005615742466 3.373392945e-19 0.02066372782)
(0.005973069428 3.326298319e-19 0.02062344608)
(0.006336885707 3.475852777e-19 0.02058238797)
(0.006707165362 3.476320826e-19 0.02054041573)
(0.007083893659 3.509989925e-19 0.02049728132)
(0.007467083892 3.622515625e-19 0.02045260459)
(0.007856795719 3.541868459e-19 0.02040584781)
(0.008253154125 3.609035512e-19 0.02035628538)
(0.008656367394 3.603848765e-19 0.02030296752)
(0.009066741168 3.574063919e-19 0.02024467618)
(0.009484683472 3.223528681e-19 0.02017987141)
(0.009910691793 3.027450911e-19 0.02010662725)
(0.01034530838 3.056873984e-19 0.02002255803)
(0.01078903464 2.923960865e-19 0.01992472882)
(0.01124212015 1.604954767e-19 0.0198095855)
(0.01170413721 1.342503936e-18 0.0196730708)
(0.01217284553 -4.880679215e-18 0.01951019785)
(0.01264619608 -5.485905131e-18 0.01932666931)
(0.01308408426 -3.135392004e-18 0.0189802584)
(0.01344431567 -6.86889873e-19 0.01993802885)
(0.0125918907 5.298550171e-19 0.01064695728)
(0.005730247525 5.27397165e-19 0.09945242759)
(0.0002601810021 3.145117848e-19 0.02075649534)
(0.0004464132591 2.794143681e-19 0.02075036645)
(0.0007014041017 -1.275800075e-17 0.02074198806)
(0.0009679578434 -6.14018371e-19 0.02073017049)
(0.00124004592 4.676336242e-19 0.02071478677)
(0.001516432089 3.609660493e-19 0.02069588176)
(0.001796973077 3.37249292e-19 0.02067357242)
(0.002081869166 6.475446109e-19 0.0206480213)
(0.002371438593 -1.161595454e-17 0.02061942452)
(0.002666031294 -2.636893861e-18 0.02058800433)
(0.002965989548 1.156895336e-17 0.02055400297)
(0.00327162743 1.487048811e-17 0.02051767669)
(0.003583219058 3.615929658e-18 0.02047928928)
(0.003900991661 1.980903361e-19 0.02043910501)
(0.004225121753 1.56745329e-19 0.02039738045)
(0.00455573374 3.134645373e-19 0.02035435535)
(0.004892900624 3.373538132e-19 0.02031024231)
(0.005236646759 3.349653903e-19 0.02026521506)
(0.00558695264 3.369736925e-19 0.02021939538)
(0.005943761777 3.350192893e-19 0.02017283855)
(0.006306989624 3.545202918e-19 0.02012551703)
(0.006676534511 3.508637793e-19 0.02007730218)
(0.007052290414 3.584075144e-19 0.02002794392)
(0.007434161178 3.606980979e-19 0.01997704769)
(0.007822075517 3.545523279e-19 0.01992404825)
(0.008216001761 3.626220489e-19 0.01986817954)
(0.008615960582 3.569588074e-19 0.01980844005)
(0.009022032887 3.45014424e-19 0.01974355289)
(0.009434358433 3.02088934e-19 0.0196719207)
(0.009853119315 2.807984028e-19 0.01959157615)
(0.01027850496 3.155019565e-19 0.01950012916)
(0.01071064234 2.854786858e-19 0.01939471019)
(0.01114944336 1.59416861e-19 0.01927201231)
(0.01159443601 1.326978168e-18 0.01912846276)
(0.01204432119 -4.969371351e-18 0.01896038856)
(0.01250006489 -5.515316388e-18 0.01877082503)
(0.01292398319 -3.046159428e-18 0.01847099848)
(0.01318960246 -5.727963936e-19 0.019192567)
(0.01203179537 5.673892878e-19 0.01100955397)
(0.005348379418 4.929131256e-19 0.1088401972)
(0.0002575005846 3.149833674e-19 0.02039099981)
(0.0004418282996 2.788608824e-19 0.02038456612)
(0.0006942380442 -1.276592196e-17 0.02037513595)
(0.0009581553818 -6.048809662e-19 0.02036164228)
(0.001227647792 4.688333518e-19 0.02034400452)
(0.001501522188 3.608624053e-19 0.02032229763)
(0.001779664917 3.374775209e-19 0.02029666789)
(0.002062299742 6.408015335e-19 0.02026730927)
(0.002349764183 -1.163369831e-17 0.02023445252)
(0.002642423727 -2.594293146e-18 0.02019835795)
(0.002940632375 1.159465934e-17 0.02015930924)
(0.003244711688 1.48698731e-17 0.02011760705)
(0.003554938476 3.577449119e-18 0.0200735621)
(0.003871537159 1.858670512e-19 0.02002748727)
(0.004194675162 1.607923238e-19 0.01997968868)
(0.004524460629 3.209504879e-19 0.01993045547)
(0.004860942193 3.399433532e-19 0.01988004831)
(0.00520411069 3.347994345e-19 0.01982868642)
(0.005553902843 3.298960123e-19 0.0197765331)
(0.005910206898 3.425982062e-19 0.01972367966)
(0.006272870193 3.606738114e-19 0.01967012766)
(0.006641708523 3.553942405e-19 0.01961576933)
(0.007016517038 3.600803773e-19 0.01956036587)
(0.007397082274 3.625549937e-19 0.01950352365)
(0.007783194541 3.577145956e-19 0.01944466778)
(0.008174659677 3.674758135e-19 0.01938301253)
(0.008571308526 3.496773397e-19 0.01931752891)
(0.008973001294 3.388480159e-19 0.01924690941)
(0.009379624529 3.037819899e-19 0.01916952982)
(0.009791078432 2.813956622e-19 0.01908341037)
(0.01020726075 2.712450293e-19 0.01898616849)
(0.01062800807 3.206675602e-19 0.01887501021)
(0.01105301413 2.040730868e-19 0.01874679975)
(0.01148184718 1.373426434e-18 0.01859815389)
(0.01191396016 -5.115157591e-18 0.0184258448)
(0.01235306732 -5.582540266e-18 0.01822829316)
(0.01277387466 -2.957368066e-18 0.01796554653)
(0.01302803477 -3.750934894e-19 0.01840179794)
(0.01160368687 5.959344599e-19 0.01166804648)
(0.00501615415 4.760736356e-19 0.1178790381)
(0.000254429176 3.135806998e-19 0.02002955297)
(0.0004365755438 2.72518372e-19 0.02002281684)
(0.0006860318088 -1.277400359e-17 0.0200123004)
(0.00094693558 -5.875831226e-19 0.01999707005)
(0.001213463266 4.691084735e-19 0.01997709351)
(0.00148447046 3.617867214e-19 0.01995247731)
(0.001759877035 3.392199621e-19 0.0199233987)
(0.002039933623 6.350675432e-19 0.01989008504)
(0.002325000148 -1.165931039e-17 0.01985280395)
(0.002615460515 -2.550722807e-18 0.01981185647)
(0.002911682988 1.164214491e-17 0.01976757079)
(0.003213998778 1.486725488e-17 0.01972029564)
(0.003522689067 3.533204732e-18 0.01967039281)
(0.003837976588 1.78957815e-19 0.01961822872)
(0.00416002012 1.682453063e-19 0.01956416458)
(0.004488911238 3.280183716e-19 0.01950854527)
(0.004824673042 3.439254331e-19 0.01945168671)
(0.005167260782 3.397707583e-19 0.01939386166)
(0.00551656437 3.362739949e-19 0.01933528389)
(0.005872412799 3.547209015e-19 0.01927609074)
(0.006234580404 3.694846101e-19 0.01921632402)
(0.006602794793 3.62532624e-19 0.01915590909)
(0.006976746192 3.659118867e-19 0.01909463223)
(0.00735609772 3.623095794e-19 0.01903211616)
(0.007740495962 3.647528137e-19 0.01896779349)
(0.00812958098 3.674859961e-19 0.01890087795)
(0.008522993542 3.388858128e-19 0.01883033452)
(0.008920378183 3.406344774e-19 0.01875484796)
(0.009321382276 3.112847569e-19 0.01867278897)
(0.009725653369 2.993591645e-19 0.01858217932)
(0.01013282583 2.918586409e-19 0.01848065089)
(0.01054248166 3.197428414e-19 0.01836547793)
(0.01095414779 2.117913671e-19 0.01823359999)
(0.01136738221 1.374607905e-18 0.01808163747)
(0.01178179391 -5.197557847e-18 0.01790639274)
(0.01220143207 -5.607487072e-18 0.01770060002)
(0.01260476507 -2.844344326e-18 0.01746501944)
(0.0127480258 -2.919299945e-19 0.0175545705)
(0.0110461045 6.385599763e-19 0.01261260233)
(0.004655896408 4.242770125e-19 0.1265924178)
(0.0002509518404 3.035635879e-19 0.01967271893)
(0.0004306292507 2.619764563e-19 0.01966567813)
(0.0006767447414 -1.278240217e-17 0.01965403302)
(0.0009342422015 -5.71424132e-19 0.01963699449)
(0.001197420598 4.654351979e-19 0.01961458084)
(0.001465190258 3.622262337e-19 0.01958693159)
(0.001737508876 3.417199315e-19 0.01955425657)
(0.00201465768 6.280445745e-19 0.01951681849)
(0.002297022442 -1.16892811e-17 0.01947492418)
(0.002585008694 -2.500618533e-18 0.01942891818)
(0.002879001896 1.171230658e-17 0.01937917652)
(0.003179345493 1.485531591e-17 0.01932609985)
(0.003486327197 3.484750385e-18 0.01927010567)
(0.003800169679 1.747119022e-19 0.01921161921)
(0.004121024081 1.750831617e-19 0.0191510629)
(0.004448965695 3.27431407e-19 0.01908884433)
(0.004783991563 3.472801848e-19 0.01902534252)
(0.005126019945 3.415647368e-19 0.01896089254)
(0.005474891639 3.586626929e-19 0.01889576838)
(0.00583037319 3.62301223e-19 0.01883016413)
(0.006192161916 3.620830107e-19 0.01876417359)
(0.006559892605 3.631669475e-19 0.01869776816)
(0.006933145579 3.68030435e-19 0.0186307732)
(0.007311455734 3.331450143e-19 0.01856284301)
(0.007694322084 3.639133224e-19 0.01849343408)
(0.008081216695 3.574813898e-19 0.01842177709)
(0.008471590227 3.249554416e-19 0.01834685037)
(0.008864876322 3.239501582e-19 0.01826734895)
(0.009260494121 3.053389793e-19 0.01818165433)
(0.009657854614 3.257612481e-19 0.01808779501)
(0.0100563408 3.194060448e-19 0.01798343517)
(0.01045528851 3.170722052e-19 0.01786589606)
(0.01085403766 2.442202026e-19 0.01773211832)
(0.01125204187 1.348372703e-18 0.01757863731)
(0.01164890167 -5.272103834e-18 0.01740219091)
(0.01204762804 -5.66378501e-18 0.01719051123)
(0.01242364296 -2.713714195e-18 0.01698340499)
(0.01243131651 -2.355931965e-19 0.01672363428)
(0.01051966582 6.564364444e-19 0.01377060734)
(0.00435136329 3.866968143e-19 0.1349891549)
(0.0002470511752 3.159776955e-19 0.0193210848)
(0.0004239595182 2.689210969e-19 0.01931373251)
(0.0006663298776 -1.279318157e-17 0.01930090852)
(0.0009200106572 -5.583210033e-19 0.0192819794)
(0.001179437722 4.658001835e-19 0.01925701629)
(0.001443582645 3.583620434e-19 0.01922619321)
(0.001712445634 3.377936742e-19 0.01918975419)
(0.001986342593 6.139974621e-19 0.0191479992)
(0.002265688958 -1.171873581e-17 0.01910127668)
(0.002550915485 -2.451989207e-18 0.01904997755)
(0.002842428204 1.174997772e-17 0.01899452914)
(0.003140585864 1.484647404e-17 0.01893538823)
(0.003445685389 3.412952915e-18 0.01887303289)
(0.003757951587 1.573010504e-19 0.0188079529)
(0.004077529579 1.71332329e-19 0.01874063857)
(0.004404479299 3.159482226e-19 0.01867156771)
(0.00473877188 3.357408876e-19 0.01860119096)
(0.005080287888 3.321305017e-19 0.01852991517)
(0.005428817418 3.422370162e-19 0.01845808501)
(0.005784062105 3.550396877e-19 0.01838596276)
(0.006145639018 3.614113817e-19 0.01831370658)
(0.006513086291 3.50284831e-19 0.01824134723)
(0.006885870197 3.551197339e-19 0.01816876341)
(0.007263393446 3.525164288e-19 0.01809565597)
(0.007645004607 3.486844111e-19 0.0180215206)
(0.008030005043 3.387499072e-19 0.01794562228)
(0.008417655205 3.022983459e-19 0.01786696904)
(0.008807181911 3.206458574e-19 0.01778428087)
(0.009197786486 2.982829012e-19 0.01769596039)
(0.009588644211 2.723890451e-19 0.01760005589)
(0.009978882238 2.565467691e-19 0.01749428004)
(0.01036759404 2.972644861e-19 0.01737597817)
(0.01075389253 1.973046508e-19 0.01724206838)
(0.01113698916 1.379195955e-18 0.01708898108)
(0.01151618059 -5.462960188e-18 0.01691337789)
(0.01189302487 -5.658407675e-18 0.0166994885)
(0.01224172677 -2.692700596e-18 0.01652590668)
(0.01213368868 -1.506419899e-19 0.01594619269)
(0.01003292077 6.348196943e-19 0.01506648268)
(0.0040673702 3.995768859e-19 0.1430840927)
(0.0002427073398 3.137568723e-19 0.01897526405)
(0.0004165323151 2.610060672e-19 0.01896758881)
(0.0006547339003 -1.280522379e-17 0.01895352792)
(0.0009041677977 -5.375898953e-19 0.01893261466)
(0.001159421834 4.627052138e-19 0.01890497529)
(0.001419535779 3.558574672e-19 0.01887081984)
(0.001684557418 3.363703344e-19 0.01883042811)
(0.001954841805 6.025558135e-19 0.01878413929)
(0.00223083824 -1.175662119e-17 0.01873234578)
(0.002513006747 -2.395616164e-18 0.01867548785)
(0.002801777781 1.180640098e-17 0.01861404774)
(0.003097529004 1.484202194e-17 0.01854854273)
(0.003400569824 3.344301736e-18 0.01847951669)
(0.00371113002 1.459159219e-19 0.01840753007)
(0.004029350968 1.723518967e-19 0.01833314811)
(0.004355278861 3.172708368e-19 0.01825692698)
(0.004688859772 3.317569141e-19 0.01817939807)
(0.005029936578 3.310156299e-19 0.01810105019)
(0.005378247785 3.469787358e-19 0.01802230984)
(0.005733428351 3.537916968e-19 0.01794351964)
(0.006095012512 3.586626806e-19 0.01786491512)
(0.006462438523 3.495819234e-19 0.01778660013)
(0.00683505506 3.515449725e-19 0.01770852117)
(0.007212129358 3.596271709e-19 0.01763044033)
(0.007592856073 3.474391244e-19 0.01755190764)
(0.007976363176 3.330302723e-19 0.01747223932)
(0.00836172093 3.02664995e-19 0.01739048627)
(0.008747953246 3.122645063e-19 0.01730540572)
(0.00913404747 2.95005561e-19 0.01721542945)
(0.009518934772 2.78805558e-19 0.01711865521)
(0.009901485077 2.675188443e-19 0.01701284353)
(0.0102805479 2.884454146e-19 0.01689535163)
(0.01065496364 2.465662552e-19 0.0167630999)
(0.01102358381 1.388671984e-18 0.01661246419)
(0.01138522287 -5.558547226e-18 0.01644010411)
(0.01174025467 -5.67701419e-18 0.0162279477)
(0.01206320157 -2.570985428e-18 0.01609104667)
(0.01184342235 -9.389062851e-20 0.01521092842)
(0.009570073872 6.475958102e-19 0.01648230949)
(0.003801930143 3.694425991e-19 0.1508968507)
(0.000237898051 3.163166321e-19 0.01863590004)
(0.0004083094468 2.510909466e-19 0.01862788555)
(0.0006418970214 -1.28194618e-17 0.01861252177)
(0.0008866316566 -5.15970272e-19 0.01858951941)
(0.001137268963 4.595121127e-19 0.01855906207)
(0.00139292428 3.552475637e-19 0.01852139721)
(0.001653698421 3.364581798e-19 0.01847684195)
(0.001919990439 5.914183216e-19 0.01842577655)
(0.002192288146 -1.179809088e-17 0.01836863976)
(0.002471085345 -2.3325543e-18 0.01830592416)
(0.002756841305 1.188622209e-17 0.01823817064)
(0.003049956807 1.482096041e-17 0.01816596149)
(0.003350757664 3.270886624e-18 0.01808991184)
(0.00365948215 1.427639365e-19 0.01801065929)
(0.003976270903 1.76767076e-19 0.01792885154)
(0.004301158738 3.157944063e-19 0.01784513178)
(0.004634068267 3.301986749e-19 0.0177601219)
(0.004974805406 3.323062637e-19 0.01767440355)
(0.005323056872 3.341203465e-19 0.01758849698)
(0.005678389804 3.371237119e-19 0.01750283795)
(0.006040253578 3.509807071e-19 0.01741775304)
(0.00640798378 3.499838171e-19 0.01733343353)
(0.006780808272 3.455120627e-19 0.01724990832)
(0.007157856033 3.821202829e-19 0.01716701495)
(0.007538163099 3.631862111e-19 0.01708437495)
(0.007920681217 3.253671701e-19 0.01700136921)
(0.008304292305 3.056850546e-19 0.01691710301)
(0.008687819942 2.843122747e-19 0.01683038144)
(0.009070021411 3.003746272e-19 0.01673968791)
(0.009449582574 2.907495757e-19 0.01664318352)
(0.009825142241 2.948677078e-19 0.01653866783)
(0.01019529535 2.953303457e-19 0.01642353055)
(0.01055857963 2.783820963e-19 0.01629473068)
(0.01091346477 1.340947932e-18 0.01614867276)
(0.01125818336 -5.633892229e-18 0.01598215667)
(0.01159187585 -5.706035794e-18 0.01577560398)
(0.01189109084 -2.444218258e-18 0.01567664935)
(0.01156854565 -5.089049381e-20 0.01451375573)
(0.009136358449 7.738995732e-19 0.01800230765)
(0.003554107373 3.525319651e-19 0.1584452996)
(0.0002325985451 3.199688254e-19 0.01830366943)
(0.0003992484763 2.524929527e-19 0.0182952944)
(0.0006277528226 -1.282774097e-17 0.01827855359)
(0.0008673111652 -4.92575291e-19 0.01825334549)
(0.001112863525 4.586215506e-19 0.01821991303)
(0.001363608602 3.560031518e-19 0.01817854249)
(0.001619706062 3.396736481e-19 0.01812958972)
(0.00188160422 5.832722094e-19 0.01807347784)
(0.002149834484 -1.183904224e-17 0.01801069423)
(0.002424929472 -2.258368199e-18 0.01794178675)
(0.002707382242 1.194891956e-17 0.01786735867)
(0.002997621542 1.481921279e-17 0.01778806193)
(0.003295994227 3.202158112e-18 0.01770458858)
(0.003602751357 1.359957967e-19 0.01761766017)
(0.003918036632 1.906273888e-19 0.0175280148)
(0.004241876661 3.256512004e-19 0.01743639186)
(0.004574172993 3.39009557e-19 0.01734351416)
(0.004914696077 3.339268748e-19 0.01725006776)
(0.005263081328 3.524370682e-19 0.01715667934)
(0.005618827502 3.617508277e-19 0.01706389147)
(0.005981297533 3.655837819e-19 0.01697213614)
(0.006349721968 3.57846883e-19 0.01688170694)
(0.006723205085 3.617151733e-19 0.01679273006)
(0.007100733132 3.631090522e-19 0.0167051335)
(0.00748117927 3.522221661e-19 0.01661862801)
(0.007863317734 3.22298324e-19 0.01653266884)
(0.008245840346 3.094610791e-19 0.0164464282)
(0.008627357798 3.144180148e-19 0.01635877552)
(0.009006399165 2.961132856e-19 0.0162682653)
(0.00938142409 2.881363756e-19 0.01617311735)
(0.009750831156 2.958321322e-19 0.01607117948)
(0.01011294976 3.149107921e-19 0.01595990268)
(0.01046602663 2.425318246e-19 0.01583631145)
(0.01080819775 1.380553611e-18 0.01569690157)
(0.01113733371 -5.78439603e-18 0.01553870912)
(0.01145166846 -5.699902973e-18 0.0153413742)
(0.01172941169 -2.369486459e-18 0.01528054367)
(0.01131193303 4.385326936e-20 0.01384856739)
(0.008732610812 6.639610733e-19 0.01961831854)
(0.003323537219 3.219033819e-19 0.1657477719)
(0.0002267815283 3.203074316e-19 0.01797928572)
(0.0003893026378 2.425447312e-19 0.0179705237)
(0.0006122280885 -1.284291259e-17 0.01795232339)
(0.0008461058686 -4.685506338e-19 0.01792478091)
(0.001086077879 4.553348227e-19 0.01788820032)
(0.0013314344 3.554883912e-19 0.01784290791)
(0.001582400146 3.407901846e-19 0.01778929954)
(0.001839478359 5.698734086e-19 0.0177278428)
(0.002103249612 -1.188712364e-17 0.01765907587)
(0.002374290926 -2.18477885e-18 0.01758360476)
(0.002653134745 1.202481981e-17 0.0175020988)
(0.002940243348 1.480263039e-17 0.01741528428)
(0.003235990046 3.121639895e-18 0.01732393602)
(0.003540643815 1.357162843e-19 0.01722886651)
(0.003854356098 1.967701873e-19 0.01713091264)
(0.004177149354 3.257307613e-19 0.01703091966)
(0.004508907333 3.379279128e-19 0.0169297224)
(0.004849367313 3.357348855e-19 0.01682812366)
(0.005198114608 3.529551389e-19 0.01672687008)
(0.005554579596 3.397326721e-19 0.01662662556)
(0.005918037583 3.543844777e-19 0.01652794279)
(0.006287611968 3.583076938e-19 0.01643123313)
(0.006662281357 3.522760205e-19 0.01633673484)