/*--------------------------------*- C++ -*----------------------------------*\
| =========                 |                                                 |
| \\      /  F ield         | OpenFOAM: The Open Source CFD Toolbox           |
|  \\    /   O peration     | Version:  v1912                                 |
|   \\  /    A nd           | Website:  www.openfoam.com                      |
|    \\/     M anipulation  |                                                 |
\*---------------------------------------------------------------------------*/
FoamFile
{
    version     2.0;
    format      ascii;
    class       volVectorField;
    location    "0.5";
    object      U.gas_0;
}
// * * * * * * * * * * * * * * * * * * * * * * * * * * * * * * * * * * * * * //

dimensions      [0 1 -1 0 0 0 0];


internalField   nonuniform List<vector> 
4800
(
(0.0002548506254 3.207404035e-19 0.01240796454)
(0.0004396516616 2.809412449e-19 0.01240610461)
(0.0006926290043 -1.219134796e-17 0.01240538838)
(0.0009567646682 -5.852531986e-19 0.01240460861)
(0.001225964986 4.493762931e-19 0.01240365018)
(0.001498916807 3.474489051e-19 0.01240249277)
(0.001775394946 3.226182881e-19 0.01240113513)
(0.002055520785 6.460251591e-19 0.01239958386)
(0.002339539213 -1.108998127e-17 0.01239784944)
(0.002627734875 -2.559016931e-18 0.0123959445)
(0.002920395356 1.099824747e-17 0.01239388306)
(0.003217793092 1.420887905e-17 0.01239167999)
(0.003520176212 3.475750941e-18 0.01238935044)
(0.003827764373 1.86010353e-19 0.01238690935)
(0.004140747871 1.525298758e-19 0.0123843708)
(0.004459289355 3.117638822e-19 0.01238174744)
(0.004783527897 3.346475051e-19 0.01237904976)
(0.005113585442 3.42530375e-19 0.0123762852)
(0.005449575775 3.364703693e-19 0.01237345731)
(0.005791616266 3.167295595e-19 0.0123705646)
(0.006139842771 3.196833736e-19 0.01236759933)
(0.006494428213 3.222916333e-19 0.01236454602)
(0.006855605495 3.179667871e-19 0.01236137968)
(0.007223695795 3.095942714e-19 0.01235806356)
(0.00759914364 3.252429547e-19 0.01235454639)
(0.007982560934 3.180663748e-19 0.01235075853)
(0.00837478332 3.265105939e-19 0.01234660673)
(0.008776944336 3.540575232e-19 0.01234196643)
(0.009190576485 3.512101355e-19 0.01233667004)
(0.009617755075 3.43110146e-19 0.01233048794)
(0.01006131351 3.445816095e-19 0.0123230965)
(0.01052518342 3.231930273e-19 0.01231402158)
(0.011014976 2.184620051e-19 0.01230252552)
(0.01153895573 1.275905944e-18 0.01228743869)
(0.01211061897 -4.497374606e-18 0.01226625893)
(0.01274206842 -5.109422706e-18 0.01224178214)
(0.01352477002 -3.245508203e-18 0.01216000115)
(0.0139173176 -1.125445854e-18 0.01248625811)
(0.01852043197 1.617298659e-19 0.008852317701)
(0.01138119491 5.125816818e-19 0.02011900842)
(0.0002676710219 3.336411555e-19 0.02376854966)
(0.0004592961462 2.84869448e-19 0.0237645799)
(0.0007218287279 -1.270901189e-17 0.02376250835)
(0.0009962516681 -6.454953495e-19 0.02376014979)
(0.001276103095 4.710540473e-19 0.02375722362)
(0.001559977944 3.655040202e-19 0.02375367903)
(0.001847633975 3.358155311e-19 0.02374951584)
(0.002139201038 6.6570986e-19 0.0237447554)
(0.002434943439 -1.152171731e-17 0.02373942986)
(0.002735170787 -2.742334792e-18 0.02373357734)
(0.00304019836 1.139309061e-17 0.02372724034)
(0.003350327466 1.48252753e-17 0.02372046378)
(0.003665835629 3.736130698e-18 0.02371329339)
(0.003986972047 2.226427809e-19 0.0237057742)
(0.004313956505 1.51217037e-19 0.02369794874)
(0.004646981013 3.221373264e-19 0.02368985513)
(0.004986213911 3.497684293e-19 0.02368152492)
(0.005331806425 3.387264201e-19 0.02367298054)
(0.00568390183 3.326696854e-19 0.02366423252)
(0.006042647493 3.259735258e-19 0.02365527622)
(0.006408210162 3.345006451e-19 0.02364608803)
(0.006780795027 3.320586622e-19 0.02363662091)
(0.00716066925 3.367645915e-19 0.02362679903)
(0.007548190921 3.3547855e-19 0.02361651108)
(0.007943844857 3.395728408e-19 0.02360560179)
(0.008348287275 3.643560139e-19 0.02359386063)
(0.008762402441 3.723256128e-19 0.02358100619)
(0.009187376158 3.531406658e-19 0.02356666363)
(0.009624793905 3.514090628e-19 0.02355033044)
(0.01007677669 3.552911586e-19 0.02353132212)
(0.01054617698 3.68106611e-19 0.0235086816)
(0.01103687388 3.412430114e-19 0.02348102209)
(0.01155422945 1.834730097e-19 0.02344623075)
(0.0121057811 1.317149996e-18 0.02340103359)
(0.012702905 -4.503080408e-18 0.02333864581)
(0.01336067258 -5.293513684e-18 0.02326353036)
(0.01417823279 -3.583556025e-18 0.02301270514)
(0.01474269919 -1.185948872e-18 0.02390390189)
(0.0164661564 1.855574691e-19 0.01534570872)
(0.008910738481 5.497171324e-19 0.04606540715)
(0.0002673831486 3.156837389e-19 0.02258326662)
(0.0004587316289 2.879965027e-19 0.02257885947)
(0.0007207691459 -1.271303009e-17 0.02257559685)
(0.0009946214097 -6.441144186e-19 0.02257165248)
(0.001273924714 4.73264397e-19 0.02256670264)
(0.001557289806 3.622945204e-19 0.02256068666)
(0.001844478703 3.362505768e-19 0.02255361251)
(0.002135623547 6.653958941e-19 0.02254551873)
(0.002430991029 -1.152511246e-17 0.02253646026)
(0.002730892467 -2.738127467e-18 0.02252650183)
(0.003035644013 1.140533565e-17 0.02251571512)
(0.003345547254 1.483048611e-17 0.02250417581)
(0.003660879111 3.733208698e-18 0.02249196103)
(0.003981887034 2.110237205e-19 0.02247914667)
(0.00430878768 1.569270153e-19 0.02246580457)
(0.004641768295 3.212114852e-19 0.02245199924)
(0.004980990557 3.48212516e-19 0.02243778421)
(0.00532659683 3.264702934e-19 0.02242319789)
(0.005678718999 3.255024386e-19 0.02240825882)
(0.006037490086 3.353701859e-19 0.02239296024)
(0.006403059024 3.486273831e-19 0.02237726377)
(0.006775609011 3.317482842e-19 0.02236109199)
(0.007155380046 3.325542964e-19 0.02234431959)
(0.007542696443 3.330682047e-19 0.02232676242)
(0.00793800043 3.500223623e-19 0.02230816364)
(0.00834189335 3.582177173e-19 0.02228817555)
(0.008755186648 3.536911279e-19 0.02226633485)
(0.009178965802 3.603334519e-19 0.0222420274)
(0.009614671691 3.605883148e-19 0.02221443601)
(0.01006420589 3.319117481e-19 0.02218245955)
(0.01053006886 3.081580342e-19 0.02214458206)
(0.01101554307 2.705933485e-19 0.0220986527)
(0.01152493721 2.427211683e-19 0.02204149367)
(0.01206393232 1.293292893e-18 0.02196831922)
(0.01264005539 -4.471132833e-18 0.02186980294)
(0.01326045162 -5.310453677e-18 0.02175009738)
(0.01396349662 -3.483170931e-18 0.02136964228)
(0.01456417542 -1.183672413e-18 0.02259528915)
(0.0150483065 3.661419015e-19 0.01233411343)
(0.007556272387 5.448667754e-19 0.05770961329)
(0.0002665158153 3.132233393e-19 0.02225419473)
(0.0004572612396 2.806043608e-19 0.02224941274)
(0.0007184216268 -1.271413255e-17 0.02224508024)
(0.0009913284291 -6.399077146e-19 0.02223956962)
(0.001269689195 4.693969476e-19 0.02223258355)
(0.001552142532 3.619281853e-19 0.02222406918)
(0.001838463681 3.357593141e-19 0.02221404869)
(0.002128792863 6.62463064e-19 0.02220258026)
(0.002423402289 -1.153225145e-17 0.02218974293)
(0.002722607342 -2.724498677e-18 0.02217562936)
(0.003026726923 1.142541943e-17 0.02216034148)
(0.00333606381 1.484160382e-17 0.02214398685)
(0.003650894362 3.71341717e-18 0.02212667522)
(0.003971463439 2.155575647e-19 0.02210851483)
(0.004297982752 1.561292195e-19 0.02208960845)
(0.004630631893 3.247281769e-19 0.02207004887)
(0.004969561767 3.408532899e-19 0.02204991377)
(0.005314900391 3.303668359e-19 0.02202925997)
(0.005666761172 3.339151316e-19 0.02200811686)
(0.006025253884 3.373812984e-19 0.02198647881)
(0.006390498593 3.523790712e-19 0.02196429653)
(0.006762642902 3.348125231e-19 0.02194146686)
(0.00714188296 3.520786389e-19 0.02191782074)
(0.007528488765 3.489946572e-19 0.02189310848)
(0.007922834469 3.474361284e-19 0.02186698142)
(0.008325434534 3.596839145e-19 0.02183896822)
(0.008736986708 3.593602808e-19 0.02180844329)
(0.0091584228 3.741285095e-19 0.02177458303)
(0.009590967863 3.468295637e-19 0.02173630305)
(0.01003620682 3.155266966e-19 0.02169216464)
(0.01049615325 3.158570107e-19 0.02164023043)
(0.01097330456 2.861548308e-19 0.02157783404)
(0.01147064384 1.766774773e-19 0.02150119033)
(0.01199150744 1.344930643e-18 0.02140483159)
(0.01253901 -4.578364446e-18 0.02127887903)
(0.01311418756 -5.376615262e-18 0.0211294847)
(0.01370920784 -3.410051849e-18 0.02070036031)
(0.01419730987 -1.018474656e-18 0.02201995742)
(0.01414247775 4.256347565e-19 0.01131318491)
(0.006865682772 5.266320037e-19 0.06893621882)
(0.0002652982676 3.136702254e-19 0.02187592523)
(0.0004551739945 2.87274978e-19 0.02187077937)
(0.0007151271582 -1.271847287e-17 0.0218654235)
(0.0009867729342 -6.378580036e-19 0.02185835254)
(0.001263880756 4.71853672e-19 0.02184930968)
(0.001545118591 3.623135648e-19 0.02183826056)
(0.00183027885 3.358634558e-19 0.02182524644)
(0.002119513399 6.594922827e-19 0.02181034782)
(0.002413102944 -1.154249323e-17 0.02179366981)
(0.002711369142 -2.707922147e-18 0.02177533435)
(0.003014635156 1.14466592e-17 0.02175547513)
(0.003323205847 1.484665796e-17 0.02173423326)
(0.003637357223 3.694390179e-18 0.02171175294)
(0.003957331003 2.087835486e-19 0.02168817686)
(0.004283332559 1.590033375e-19 0.0216636411)
(0.004615531473 3.17904815e-19 0.02163826944)
(0.004954064434 3.388384724e-19 0.02161216685)
(0.005299040424 3.348926451e-19 0.02158541213)
(0.005650548288 3.324986515e-19 0.02155804957)
(0.006008666841 3.319515339e-19 0.02153007941)
(0.006373477696 3.351331716e-19 0.02150144699)
(0.0067450811 3.364171075e-19 0.02147203004)
(0.007123614999 3.520092333e-19 0.02144162388)
(0.007509277612 3.556947359e-19 0.02140992357)
(0.007902353763 3.514197349e-19 0.02137650209)
(0.008303245104 3.597061165e-19 0.02134078275)
(0.008712504013 3.610072935e-19 0.02130200352)
(0.009130870162 3.703772975e-19 0.02125916933)
(0.009559306975 3.459006459e-19 0.0212109866)
(0.009999031262 3.040085049e-19 0.02115577108)
(0.01045152046 2.744217631e-19 0.02109131514)
(0.0109184637 3.086399689e-19 0.02101469328)
(0.01140158796 1.757325708e-19 0.02092195957)
(0.01190226826 1.319355151e-18 0.02080774191)
(0.01242037253 -4.694382009e-18 0.0206631767)
(0.01295450175 -5.422817223e-18 0.02049574059)
(0.01347525786 -3.312709334e-18 0.02007266682)
(0.01390356722 -8.226026532e-19 0.02134403946)
(0.01356647532 4.363840585e-19 0.01077267513)
(0.006450272356 5.252934958e-19 0.07952939056)
(0.0002637194716 3.141011806e-19 0.02150263712)
(0.000452468901 2.822374792e-19 0.02149714789)
(0.0007108805959 -1.272232344e-17 0.02149078232)
(0.0009809355024 -6.277763574e-19 0.02148214046)
(0.001256468244 4.665125735e-19 0.02147100844)
(0.001536177983 3.613786807e-19 0.02145737582)
(0.001819877277 3.365569569e-19 0.02144130649)
(0.002107732657 6.556877914e-19 0.0214229059)
(0.002400036011 -1.156083752e-17 0.02140230715)
(0.002697117453 -2.683909085e-18 0.02137966329)
(0.002999306021 1.146470954e-17 0.02135514168)
(0.0033069097 1.483379953e-17 0.02132891903)
(0.00362020454 3.664138216e-18 0.02130117636)
(0.003939428795 2.086140395e-19 0.02127209349)
(0.004264780348 1.578577258e-19 0.02124184294)
(0.004596416695 3.137266935e-19 0.02121058298)
(0.004934457183 3.380452888e-19 0.02117844987)
(0.005278987458 3.310883428e-19 0.02114554895)
(0.005630066165 3.357400444e-19 0.02111194464)
(0.005987734026 3.328142848e-19 0.02107764912)
(0.006352025405 3.419637363e-19 0.02104260936)
(0.006722982497 3.494852343e-19 0.02100669233)
(0.007100672243 3.624346952e-19 0.02096966782)
(0.007485205938 3.547386194e-19 0.02093118823)
(0.007876761388 3.497293271e-19 0.02089076427)
(0.008275607142 3.597171443e-19 0.02084773523)
(0.008682127678 3.623285165e-19 0.02080123167)
(0.009096847195 3.655998551e-19 0.02075012793)
(0.00952044727 3.211783431e-19 0.02069298027)
(0.009953769086 2.836203224e-19 0.02062794603)
(0.01039778185 2.977833281e-19 0.02055267838)
(0.01085348486 3.178301835e-19 0.02046418949)
(0.0113216959 1.667646729e-19 0.02035865702)
(0.01180252277 1.315271115e-18 0.02023128331)
(0.01229396946 -4.759263696e-18 0.02007506961)
(0.01279365454 -5.423953717e-18 0.01989699382)
(0.01326491889 -3.225235217e-18 0.01950641941)
(0.01366573668 -7.200226348e-19 0.02065079488)
(0.01308046077 5.30742011e-19 0.0105684232)
(0.006089869456 4.981688364e-19 0.08969019325)
(0.000261776621 3.140595561e-19 0.02113163876)
(0.0004491426121 2.87131338e-19 0.02112582295)
(0.000705671489 -1.272662709e-17 0.02111844333)
(0.0009737940631 -6.160567884e-19 0.02110820557)
(0.001247418488 4.66215659e-19 0.02109493938)
(0.00152527812 3.598064783e-19 0.02107866107)
(0.001807208517 3.352590368e-19 0.02105945982)
(0.002093393699 6.510697929e-19 0.02103746827)
(0.002384139337 -1.157799455e-17 0.02101284964)
(0.002679786227 -2.652425253e-18 0.0209857901)
(0.002980671044 1.151495794e-17 0.02095649292)
(0.003287106129 1.483095486e-17 0.02092517293)
(0.003599368215 3.63192158e-18 0.02089205083)
(0.003917692038 2.010382166e-19 0.02085734686)
(0.004242267166 1.557233261e-19 0.02082127366)
(0.004573237293 3.145093255e-19 0.02078402833)
(0.004910701712 3.386729467e-19 0.02074578325)
(0.005254718902 3.329138671e-19 0.02070667584)
(0.005605312255 3.366362891e-19 0.02066679697)
(0.005962478004 3.318458992e-19 0.02062617791)
(0.006326195405 3.466978868e-19 0.02058477564)
(0.006696439211 3.468109474e-19 0.0205424561)
(0.007073194371 3.50263408e-19 0.0204989752)
(0.007456472722 3.612874629e-19 0.02045395681)
(0.007846331213 3.532489225e-19 0.02040686706)
(0.00824289077 3.600790625e-19 0.02035698369)
(0.008646354213 3.595122195e-19 0.02030335928)
(0.00905702029 3.563528857e-19 0.02024477652)
(0.009475288733 3.213851911e-19 0.02017969382)
(0.009901647414 3.019560938e-19 0.02010618005)
(0.01033662779 3.049931549e-19 0.02002183947)
(0.01078071964 2.91681151e-19 0.01992372019)
(0.01123415995 1.605285621e-19 0.01980824219)
(0.01169650754 1.340957432e-18 0.01967130894)
(0.01216551166 -4.88484179e-18 0.01950788887)
(0.01263908578 -5.47977411e-18 0.0193234681)
(0.01307724403 -3.119861818e-18 0.01897693719)
(0.01343721705 -6.745603482e-19 0.01992812078)
(0.01258594719 5.315345625e-19 0.01064163946)
(0.005728074509 5.239305351e-19 0.09945204261)
(0.0002594632152 3.138585843e-19 0.02076364123)
(0.0004451840522 2.786231091e-19 0.02075751074)
(0.0006994798936 -1.273226148e-17 0.02074910062)
(0.0009653173554 -6.093550432e-19 0.02073722926)
(0.001236688828 4.663673479e-19 0.02072177095)
(0.001512365927 3.600487291e-19 0.02070277053)
(0.001792210324 3.365685892e-19 0.02068034451)
(0.002076426412 6.448280295e-19 0.02065465481)
(0.002365336317 -1.159709991e-17 0.02062589689)
(0.002659293878 -2.62164337e-18 0.02059429234)
(0.002958645374 1.155435949e-17 0.02056008284)
(0.003263708999 1.483699819e-17 0.02052352426)
(0.003574763097 3.596353337e-18 0.0204848803)
(0.003892039184 1.959480656e-19 0.02044441541)
(0.004215718064 1.574110902e-19 0.02040238679)
(0.004545928341 3.13104829e-19 0.02035903531)
(0.004882747026 3.366783716e-19 0.02031457514)
(0.005226202168 3.343587388e-19 0.02026918222)
(0.005576277507 3.363585269e-19 0.02022298112)
(0.005932919197 3.342174433e-19 0.02017603048)
(0.006296044572 3.53765483e-19 0.02012830669)
(0.006665552904 3.501573388e-19 0.02007968557)
(0.007041338004 3.574527389e-19 0.02002992185)
(0.00742330226 3.598281779e-19 0.01997862598)
(0.007811371465 3.537188558e-19 0.01992523767)
(0.008205509401 3.615530566e-19 0.0198689954)
(0.008605730396 3.559289689e-19 0.01980890132)
(0.009012107077 3.439829109e-19 0.01974368065)
(0.009424768859 3.013152459e-19 0.01967173577)
(0.009843885287 2.804240154e-19 0.01959109558)
(0.01026963091 3.149730457e-19 0.01949936135)
(0.01070211559 2.84558374e-19 0.01939364787)
(0.01114123113 1.59489311e-19 0.0192706238)
(0.01158648187 1.324979257e-18 0.01912667958)
(0.01203654423 -4.973206075e-18 0.01895809551)
(0.01249231466 -5.508618401e-18 0.01876773597)
(0.01291620222 -3.03009157e-18 0.01846769775)
(0.01318131242 -5.60732455e-19 0.0191835985)
(0.01202493368 5.689781652e-19 0.01100240804)
(0.005345920352 4.911017857e-19 0.1088365872)
(0.0002567697428 3.142756841e-19 0.02039916434)
(0.000440576636 2.781376682e-19 0.02039272618)
(0.00069227844 -1.274011211e-17 0.02038325962)
(0.0009554657978 -6.002790952e-19 0.0203697054)
(0.001224227346 4.67536821e-19 0.02035198395)
(0.001497377851 3.599520618e-19 0.02033017006)
(0.001774808581 3.36784738e-19 0.02030440937)
(0.002056747398 6.381064801e-19 0.02027489504)
(0.002343535739 -1.16147567e-17 0.02024185694)
(0.002635543066 -2.579115014e-18 0.02020555451)
(0.002933127494 1.157998401e-17 0.0201662707)
(0.003236614876 1.483624328e-17 0.02012430562)
(0.003546286468 3.558049908e-18 0.02007996974)
(0.003862371255 1.83720736e-19 0.02003357608)
(0.004185041273 1.613950284e-19 0.01998543134)
(0.004514409238 3.205245798e-19 0.01993582582)
(0.004850528197 3.392465063e-19 0.01988502196)
(0.00519339312 3.341996615e-19 0.01983324141)
(0.005542944419 3.292131345e-19 0.01978065062)
(0.005899073426 3.418063977e-19 0.01972734478)
(0.006261629768 3.598086403e-19 0.01967333004)
(0.006630430525 3.545700381e-19 0.01961850383)
(0.007005270927 3.592356889e-19 0.01956263313)
(0.007385936146 3.615576366e-19 0.01950533044)
(0.007772213455 3.567612421e-19 0.01944602709)
(0.008163903731 3.667831131e-19 0.01938394334)
(0.008560830684 3.487022568e-19 0.01931805549)
(0.008962844926 3.38354117e-19 0.0192470599)
(0.009369820675 3.031092134e-19 0.01916933406)
(0.009781642733 2.806255381e-19 0.01908289658)
(0.01019819 2.711858561e-19 0.01898535855)
(0.01061927651 3.203528889e-19 0.01887391291)
(0.01104456881 2.040805958e-19 0.01874540235)
(0.01147360234 1.37100142e-18 0.01859641092)
(0.0119057954 -5.119583066e-18 0.01842366537)
(0.01234477701 -5.575124184e-18 0.01822547322)
(0.0127653418 -2.941203648e-18 0.01796248287)
(0.01301939142 -3.647838776e-19 0.01839431298)
(0.01159665405 5.964651222e-19 0.01165858168)
(0.005013456512 4.732806278e-19 0.1178711855)
(0.0002536839181 3.128755499e-19 0.02003875553)
(0.0004352990701 2.717804023e-19 0.02003201204)
(0.0006840330607 -1.274816683e-17 0.02002145474)
(0.0009441916288 -5.830197414e-19 0.02000615739)
(0.001209972555 4.678567663e-19 0.01998608853)
(0.001480239276 3.608404844e-19 0.01996135428)
(0.001754916543 3.385490958e-19 0.01993213104)
(0.002034259073 6.324073418e-19 0.01989864515)
(0.002318630731 -1.164023958e-17 0.01986116309)
(0.002608419467 -2.535644134e-18 0.0198199848)
(0.00290399779 1.162711866e-17 0.01977543749)
(0.00320570139 1.483369594e-17 0.01972786913)
(0.003513816146 3.513927351e-18 0.01967764108)
(0.00382856967 1.77005716e-19 0.01962511976)
(0.004150125728 1.688628112e-19 0.01957066691)
(0.004478580894 3.275871673e-19 0.01951462857)
(0.004813963165 3.43214871e-19 0.01945732255)
(0.005156232436 3.391632326e-19 0.01939902427)
(0.005505282851 3.35711904e-19 0.01933995099)
(0.005860947024 3.538481832e-19 0.01928024445)
(0.006223002093 3.686490908e-19 0.01921995169)
(0.006591177414 3.618482915e-19 0.01915900414)
(0.006965163652 3.649619747e-19 0.01909719488)
(0.007344622782 3.614118901e-19 0.01903415398)
(0.007729198363 3.638271485e-19 0.01896932176)
(0.008118525226 3.666560107e-19 0.01890191962)
(0.008512236351 3.379338391e-19 0.01883091973)
(0.008909965526 3.402511617e-19 0.01875501297)
(0.009311345982 3.107563982e-19 0.01867257421)
(0.009716007242 2.988094447e-19 0.01858162645)
(0.01012356106 2.913221129e-19 0.01847979844)
(0.0105335617 3.187893675e-19 0.01836435524)
(0.01094550242 2.119213917e-19 0.01823221893)
(0.01135889984 1.372812715e-18 0.01807998227)
(0.0117733217 -5.201699445e-18 0.01790440312)
(0.01219274031 -5.599391865e-18 0.01769815446)
(0.01259575086 -2.82708635e-18 0.01746230459)
(0.01273841342 -2.8190546e-19 0.01754870892)
(0.01103722664 6.392093031e-19 0.01260091901)
(0.004652081266 4.186814137e-19 0.1265793134)
(0.0002501908937 3.03090802e-19 0.01968298075)
(0.0004293257631 2.612602856e-19 0.01967592972)
(0.0006747033319 -1.275653047e-17 0.01966423952)
(0.0009314389202 -5.669172204e-19 0.01964712798)
(0.001193853087 4.641452275e-19 0.01962461392)
(0.001460863973 3.613194702e-19 0.01959683622)
(0.001732434103 3.409959316e-19 0.01956400364)
(0.002008848756 6.254313076e-19 0.01952637756)
(0.002290497664 -1.16700818e-17 0.01948426342)
(0.002577790475 -2.485724221e-18 0.01943800435)
(0.00287111703 1.169700785e-17 0.01938797511)
(0.003170825461 1.482166736e-17 0.01933457533)
(0.003477208457 3.465770434e-18 0.01927822182)
(0.003790493919 1.727035794e-19 0.01921933963)
(0.004110838405 1.755680673e-19 0.01915835161)
(0.004438322697 3.270425805e-19 0.01909566647)
(0.004772949292 3.465697159e-19 0.01903166517)
(0.0051146417 3.409398035e-19 0.01896668563)
(0.005463245585 3.577125563e-19 0.01890100568)
(0.005818531764 3.61434356e-19 0.0188348243)
(0.006180200998 3.612783759e-19 0.01876824121)
(0.006547890413 3.62191495e-19 0.01870123474)
(0.006921181277 3.671518744e-19 0.0186336382)
(0.007299607718 3.323365717e-19 0.01856511458)
(0.007682665903 3.628985472e-19 0.01849512969)
(0.008069822583 3.564857444e-19 0.01842292379)
(0.008460520185 3.245068366e-19 0.01834748465)
(0.008854180682 3.235513295e-19 0.01826751603)
(0.009250207521 3.046165086e-19 0.01818140664)
(0.009647991392 3.252593006e-19 0.01808718966)
(0.01004688931 3.186770028e-19 0.01798253031)
(0.0104462046 3.163834916e-19 0.01786474563)
(0.01084523743 2.443977134e-19 0.01773076417)
(0.0112433914 1.346387248e-18 0.0175771001)
(0.01164021329 -5.276212012e-18 0.01740044829)
(0.01203861619 -5.656091585e-18 0.01718852775)
(0.01241415683 -2.69723744e-18 0.01698112094)
(0.01242100554 -2.260482408e-19 0.01671951265)
(0.01050966551 6.564819243e-19 0.01375729576)
(0.004346858137 3.842995313e-19 0.1349698552)
(0.0002462733748 3.152307763e-19 0.01933242882)
(0.0004226269974 2.68202031e-19 0.0193250635)
(0.000664242574 -1.276724661e-17 0.01931219051)
(0.0009171434604 -5.538686943e-19 0.01929318287)
(0.001175787331 4.644999329e-19 0.01926811193)
(0.001439153527 3.574563006e-19 0.01923715081)
(0.001707247008 3.370864892e-19 0.01920054218)
(0.001980387687 6.113837027e-19 0.01915858438)
(0.002258994962 -1.169940009e-17 0.0191116241)
(0.002543503775 -2.437211268e-18 0.01906005052)
(0.00283432468 1.17344504e-17 0.01900428934)
(0.003131821336 1.48127544e-17 0.01894479598)
(0.00343629595 3.394143787e-18 0.01888204753)
(0.003747978957 1.554457761e-19 0.01881653334)
(0.004067021368 1.719267577e-19 0.01874874392)
(0.004393489175 3.154318791e-19 0.01867915812)
(0.004727359599 3.349751809e-19 0.01860822851)
(0.005068519156 3.314098547e-19 0.01853636496)
(0.005416763556 3.412822527e-19 0.01846391626)
(0.005771799484 3.543542079e-19 0.01839115007)
(0.006133248224 3.604785575e-19 0.01831823116)
(0.006500650995 3.493535129e-19 0.01824519816)
(0.006873475694 3.54295148e-19 0.01817193886)
(0.007251124821 3.51749002e-19 0.01809816429)
(0.00763294449 3.480842428e-19 0.01802338122)
(0.008018230894 3.376707725e-19 0.01794686634)
(0.008406236069 3.017345465e-19 0.01786763964)
(0.00879617454 3.200563141e-19 0.0177844328)
(0.009187230773 2.978237223e-19 0.01769565915)
(0.009578557884 2.717821358e-19 0.01759937579)
(0.009969254198 2.558681478e-19 0.01749330143)
(0.01035837655 2.970096232e-19 0.01737478313)
(0.01074499276 1.971770806e-19 0.01724073368)
(0.01112825592 1.377202831e-18 0.01708757084)
(0.01150739289 -5.467956978e-18 0.01691192066)
(0.01188383746 -5.649319835e-18 0.01669805719)
(0.01223189024 -2.675492728e-18 0.01652419629)
(0.01212272955 -1.403273792e-19 0.01594401049)
(0.01002199839 6.347847544e-19 0.0150519283)
(0.004062363323 3.979165275e-19 0.1430578657)
(0.0002419116536 3.132557885e-19 0.01898771478)
(0.0004151689664 2.603397142e-19 0.01898002376)
(0.0006525978141 -1.277921976e-17 0.01896591036)
(0.0009012325583 -5.332104793e-19 0.01894491369)
(0.001155683041 4.614462155e-19 0.0189171599)
(0.001414996724 3.549580558e-19 0.01888285779)
(0.001679226046 3.356993383e-19 0.01884228548)
(0.001948729999 5.999952592e-19 0.01879578019)
(0.002223961836 -1.173710203e-17 0.01874373215)
(0.002505385828 -2.381088138e-18 0.01868657948)
(0.002793437099 1.179058129e-17 0.0186248024)
(0.003088498458 1.480830089e-17 0.01855891639)
(0.003390884932 3.325681441e-18 0.01848946397)
(0.003700832356 1.44157733e-19 0.01841700482)
(0.004018488536 1.729922602e-19 0.01834210411)
(0.004343906353 3.168379676e-19 0.01826531888)
(0.004677038692 3.310497738e-19 0.01818718239)
(0.005017735186 3.303706668e-19 0.01810818655)
(0.005365740824 3.462599156e-19 0.01802876224)
(0.005720696527 3.528281032e-19 0.0179492579)
(0.006082141678 3.578057412e-19 0.01786991637)
(0.006449518535 3.487384203e-19 0.01779085033)
(0.006822178269 3.507901582e-19 0.01771201658)
(0.007199388679 3.586460829e-19 0.01763318894)
(0.007580342603 3.464444282e-19 0.0175539304)
(0.007964163257 3.322407856e-19 0.01747357123)
(0.00834991262 3.021886944e-19 0.01739117701)
(0.008736602035 3.119345724e-19 0.01730552003)
(0.00912320123 2.945998826e-19 0.01721504663)
(0.009508617944 2.783276194e-19 0.01711786807)
(0.009891691303 2.670071027e-19 0.0170117566)
(0.0102712308 2.881890338e-19 0.01689407815)
(0.01064602691 2.464702028e-19 0.01676175597)
(0.0110148665 1.38615661e-18 0.01661116331)
(0.0113764877 -5.562917081e-18 0.01643893525)
(0.01173113829 -5.667421429e-18 0.01622710316)
(0.01205339426 -2.554319736e-18 0.01609002497)
(0.01183206972 -8.582560251e-20 0.0152109429)
(0.009558482211 6.467884768e-19 0.01646656914)
(0.003796636883 3.675681428e-19 0.1508633246)
(0.0002370836048 3.156399331e-19 0.01864948332)
(0.0004069137437 2.503904044e-19 0.01864145043)
(0.0006397096766 -1.279338657e-17 0.01862603108)
(0.0008836247964 -5.11705935e-19 0.01860294118)
(0.001133436912 4.58239272e-19 0.01857236378)
(0.001388268947 3.543591673e-19 0.0185345448)
(0.001648226232 3.35743163e-19 0.0184897993)
(0.001913711665 5.888870358e-19 0.01843850515)
(0.002185216974 -1.177843514e-17 0.01838109848)
(0.002463240262 -2.318092584e-18 0.01831806924)
(0.002748245614 1.186998668e-17 0.01824995578)
(0.003040639201 1.478715365e-17 0.01817733812)
(0.003340752813 3.252462378e-18 0.01810082956)
(0.003648831257 1.412290398e-19 0.0180210665)
(0.003965022189 1.773281084e-19 0.01793869622)
(0.004289367821 3.153524339e-19 0.01785436249)
(0.004621798392 3.294356742e-19 0.01776868897)
(0.00496212749 3.315101863e-19 0.01768226037)
(0.00531004932 3.334195287e-19 0.01759560154)
(0.005665138042 3.361643026e-19 0.0175091545)
(0.006026849287 3.501999273e-19 0.01742325379)
(0.006394523754 3.490432471e-19 0.01733810046)
(0.00676739288 3.44625217e-19 0.01725373498)
(0.007144587238 3.811170245e-19 0.01717000821)
(0.007525141942 3.623711027e-19 0.01708655665)
(0.007908004711 3.24342428e-19 0.01700277768)
(0.008292049492 3.05306471e-19 0.01691779437)
(0.008676087554 2.838340814e-19 0.01683043024)
(0.009058858695 3.00112531e-19 0.01673918746)
(0.009439024535 2.902440827e-19 0.01664224606)
(0.00981519161 2.939986928e-19 0.01653742349)
(0.01018591247 2.945509319e-19 0.0164221259)
(0.01054967158 2.784871185e-19 0.01629332466)
(0.01090486877 1.338151422e-18 0.01614743305)
(0.01124965307 -5.638742461e-18 0.01598123689)
(0.01158303634 -5.696149674e-18 0.01577531476)
(0.01188156999 -2.427252182e-18 0.01567635624)
(0.01155741326 -4.283213125e-20 0.01451612723)
(0.009124995125 7.739989533e-19 0.01798531986)
(0.003548951091 3.493028755e-19 0.1584045289)
(0.0002317646519 3.196263377e-19 0.01831841218)
(0.0003978192109 2.518537882e-19 0.01831001629)
(0.0006255122325 -1.280162222e-17 0.01829321744)
(0.0008642297575 -4.883989123e-19 0.01826791852)
(0.001108934155 4.57353336e-19 0.01823436152)
(0.001358831558 3.55130166e-19 0.01819283078)
(0.001614085977 3.39005805e-19 0.01814367967)
(0.001875149437 5.807817026e-19 0.01808732842)
(0.002142557206 -1.181917944e-17 0.01802426129)
(0.002416846235 -2.244140031e-18 0.01795502294)
(0.002698514532 1.193250826e-17 0.01788021352)
(0.002987996493 1.478531915e-17 0.0178004821)
(0.003285645326 3.184050791e-18 0.01771651835)
(0.003591719139 1.346068978e-19 0.01762904206)
(0.003906369297 1.911539712e-19 0.01753879045)
(0.004229630588 3.251166444e-19 0.01744650313)
(0.004561413105 3.382650616e-19 0.01735290442)
(0.004901496003 3.331011124e-19 0.01725868339)
(0.005249523328 3.51566245e-19 0.01716447143)
(0.005605002089 3.610216471e-19 0.01707081773)
(0.005967302762 3.647192451e-19 0.01697816286)
(0.006335662323 3.570059728e-19 0.01688681112)
(0.00670918995 3.611027761e-19 0.01679690153)
(0.007086874782 3.625862413e-19 0.01670837703)
(0.007467590257 3.512138865e-19 0.01662096546)
(0.007850107467 3.215997008e-19 0.0165341412)
(0.008233111273 3.092076434e-19 0.01644709735)
(0.008615201055 3.137943356e-19 0.01635872522)
(0.008994888521 2.958785828e-19 0.0162676029)
(0.00937060886 2.876542578e-19 0.0161719748)
(0.00974072814 2.95245911e-19 0.01606971319)
(0.01010353214 3.14337854e-19 0.01595829384)
(0.01045721209 2.425200894e-19 0.01583476415)
(0.01079983083 1.378148227e-18 0.0156956415)
(0.01112916812 -5.789799848e-18 0.01553796001)
(0.01144332349 -5.689607112e-18 0.01534156586)
(0.0117204599 -2.351724113e-18 0.01528097338)
(0.01130143112 5.113660522e-20 0.01385324909)
(0.008722092419 6.625303605e-19 0.01959996731)
(0.003318877962 3.197836078e-19 0.1657002618)
(0.0002259277223 3.198431663e-19 0.01799521567)
(0.0003878389764 2.418961587e-19 0.01798643052)
(0.0006099328422 -1.281674637e-17 0.01796817036)
(0.0008429477556 -4.645339284e-19 0.01794053484)
(0.00108204807 4.540766327e-19 0.01790382658)
(0.001326531297 3.546079616e-19 0.01785836952)
(0.001576626269 3.400745063e-19 0.01780455654)
(0.001832839769 5.674340772e-19 0.01774285181)
(0.002095756139 -1.186702845e-17 0.01767378979)
(0.002365956736 -2.170778362e-18 0.01759797262)
(0.002643979081 1.200796579e-17 0.01751606583)
(0.002930291356 1.476867714e-17 0.01742879219)
(0.003225273623 3.103933523e-18 0.01733692341)
(0.003529202454 1.344757383e-19 0.01724126958)
(0.003842237661 1.971965575e-19 0.01714266613)
(0.004164410744 3.253905404e-19 0.01704195802)
(0.004495615015 3.371351819e-19 0.01693998124)
(0.004835597623 3.347592715e-19 0.01683754141)
(0.005183953803 3.522932363e-19 0.01673538992)
(0.005540123598 3.389335926e-19 0.01663419756)
(0.005903391345 3.534095415e-19 0.01653452618)
(0.006272888411 3.575616811e-19 0.01643679874)
(0.006647599898 3.514432764e-19 0.01634126754)