/*--------------------------------*- C++ -*----------------------------------*\
| =========                 |                                                 |
| \\      /  F ield         | OpenFOAM: The Open Source CFD Toolbox           |
|  \\    /   O peration     | Version:  v1912                                 |
|   \\  /    A nd           | Website:  www.openfoam.com                      |
|    \\/     M anipulation  |                                                 |
\*---------------------------------------------------------------------------*/
FoamFile
{
    version     2.0;
    format      ascii;
    class       volVectorField;
    location    "0.5";
    object      U.liquid_0;
}
// * * * * * * * * * * * * * * * * * * * * * * * * * * * * * * * * * * * * * //

dimensions      [0 1 -1 0 0 0 0];


internalField   nonuniform List<vector> 
4800
(
(0.000254062936 3.20743339e-19 -0.0001794593877)
(0.0004382790382 2.809450973e-19 -0.000181315998)
(0.0006904503596 -1.21944284e-17 -0.0001820345757)
(0.0009537535445 -5.852753778e-19 -0.0001828186387)
(0.001222124667 4.493824569e-19 -0.000183782718)
(0.001494257235 3.474534577e-19 -0.0001849470316)
(0.00176993153 3.22621611e-19 -0.0001863128327)
(0.002049273313 6.460385341e-19 -0.0001878735473)
(0.002332531523 -1.109302841e-17 -0.0001896187104)
(0.002619994755 -2.559090189e-18 -0.000191535732)
(0.002911954522 1.10012735e-17 -0.0001936105936)
(0.003208687176 1.421199564e-17 -0.0001958284333)
(0.003510444731 3.475843975e-18 -0.0001981740806)
(0.003817450639 1.860215528e-19 -0.0002006325851)
(0.004129898837 1.525268939e-19 -0.0002031897869)
(0.004447955367 3.117659349e-19 -0.0002058329553)
(0.004771762355 3.346513653e-19 -0.0002085515103)
(0.005101444355 3.424998388e-19 -0.0002113378436)
(0.005437117194 3.364739993e-19 -0.0002141882525)
(0.00577889961 3.167329272e-19 -0.0002171040177)
(0.006126928054 3.196864348e-19 -0.0002200926609)
(0.006481375166 3.222950131e-19 -0.0002231694243)
(0.006842472641 3.179699761e-19 -0.0002263590584)
(0.007210539495 3.095976631e-19 -0.0002296980564)
(0.007586017178 3.252463857e-19 -0.000233237498)
(0.007969513716 3.180696657e-19 -0.0002370468626)
(0.0083618603 3.26514032e-19 -0.0002412193332)
(0.0087641858 3.540618991e-19 -0.0002458795255)
(0.009178018355 3.512142288e-19 -0.0002511953189)
(0.009605429931 3.431134623e-19 -0.0002573968508)
(0.01004925249 3.445864044e-19 -0.0002648086033)
(0.01051341912 3.231980201e-19 -0.0002739059731)
(0.0110035456 2.184633131e-19 -0.0002854281888)
(0.01152790854 1.275913143e-18 -0.0003005459532)
(0.01209997352 -4.500288752e-18 -0.0003217627749)
(0.01273235778 -5.109442165e-18 -0.0003462787739)
(0.01351349531 -3.245569338e-18 -0.0004283267077)
(0.01391851049 -1.125511536e-18 -0.0001012869512)
(0.01876064446 1.617848807e-19 -0.003426001512)
(0.01160787474 5.116692942e-19 0.007914475616)
(0.0002670035241 3.336439521e-19 -0.0005475184572)
(0.0004581222613 2.848695595e-19 -0.0005514798235)
(0.0007199606268 -1.267312163e-17 -0.0005535565863)
(0.0009936693539 -6.455164909e-19 -0.0005559255646)
(0.001272809802 4.710502285e-19 -0.000558866124)
(0.001555982231 3.655081757e-19 -0.0005624288486)
(0.001842948997 3.358186308e-19 -0.0005666138728)
(0.002133843676 6.657220166e-19 -0.0005713998987)
(0.002428934039 -1.148577764e-17 -0.0005767548531)
(0.002728533081 -2.742403974e-18 -0.0005826406605)
(0.003032959454 1.135714754e-17 -0.0005890148739)
(0.00334251784 1.478941792e-17 -0.0005958325927)
(0.003657489117 3.736218925e-18 -0.0006030480233)
(0.003978125761 2.226543775e-19 -0.0006106160608)
(0.004304650711 1.512142862e-19 -0.0006184940046)
(0.004637258927 3.221391645e-19 -0.0006266434872)
(0.004976121407 3.497720924e-19 -0.0006350326556)
(0.005321391654 3.387294551e-19 -0.0006436386553)
(0.005673214739 3.326728319e-19 -0.0006524504581)
(0.006031739242 3.259762641e-19 -0.0006614721305)
(0.006397132451 3.345038072e-19 -0.0006707266339)
(0.006769599337 3.320616094e-19 -0.0006802603054)
(0.007149406026 3.367677355e-19 -0.0006901482585)
(0.007536908729 3.354814505e-19 -0.0007005010966)
(0.007932589563 3.395770025e-19 -0.0007114734666)
(0.008337101307 3.643593891e-19 -0.0007232754263)
(0.008751324233 3.723295867e-19 -0.0007361881616)
(0.009176439875 3.531447338e-19 -0.0007505867004)
(0.009614029606 3.514128492e-19 -0.0007669742883)
(0.01006621108 3.552945201e-19 -0.000786036927)
(0.01053583494 3.681103823e-19 -0.0008087341554)
(0.01102678093 3.412470873e-19 -0.0008364563654)
(0.01154441516 1.834734344e-19 -0.0008713211174)
(0.01209628481 1.31715693e-18 -0.0009166072174)
(0.01269374859 -4.467053546e-18 -0.0009791048764)
(0.01335212418 -5.293529876e-18 -0.001054332063)
(0.0141690371 -3.583616949e-18 -0.001305629702)
(0.01474725277 -1.186014651e-18 -0.0004128897037)
(0.01697988411 1.862422164e-19 -0.008418434542)
(0.009402347138 5.503218739e-19 0.02239002412)
(0.0002667187272 3.156871725e-19 -0.0009245167315)
(0.0004575466941 2.880032272e-19 -0.0009289144244)
(0.000718875359 -1.267974457e-17 -0.000932184364)
(0.0009920020048 -6.441359012e-19 -0.0009361438588)
(0.001270583471 4.732606225e-19 -0.0009411153042)
(0.00155323546 3.622987716e-19 -0.0009471590526)
(0.001839724515 3.362536641e-19 -0.0009542671091)
(0.002130186492 6.65408292e-19 -0.0009624009816)
(0.002424891559 -1.149179442e-17 -0.0009715058516)
(0.002724154471 -2.738197468e-18 -0.000981517102)
(0.003028294819 1.137199679e-17 -0.0009923631096)
(0.003337617643 1.479723375e-17 -0.00100396821)
(0.003652403301 3.733298024e-18 -0.001016255233)
(0.003972902627 2.110348932e-19 -0.001029148121)
(0.004299335539 1.569242486e-19 -0.001042574785)
(0.00463189235 3.212132222e-19 -0.001056470328)
(0.004970737517 3.482160643e-19 -0.001070780687)
(0.005316015803 3.265040724e-19 -0.001085466789)
(0.005667860999 3.255058418e-19 -0.00110050928)
(0.006026407441 3.353731736e-19 -0.001115913973)
(0.006391804677 3.48630963e-19 -0.001131718182)
(0.006764235728 3.317513625e-19 -0.001147998154)
(0.007143939553 3.325570908e-19 -0.001164877998)
(0.007531238518 3.330717993e-19 -0.001182540681)
(0.007926571994 3.500253252e-19 -0.001201241975)
(0.008330537622 3.582218292e-19 -0.001221328731)
(0.008743942451 3.536950278e-19 -0.001243263829)
(0.009167867113 3.603368745e-19 -0.001267661608)
(0.009603747596 3.60592483e-19 -0.001295340359)
(0.01005348111 3.319152067e-19 -0.001327403553)
(0.01051956508 3.081617837e-19 -0.001365371123)
(0.01100528128 2.705967172e-19 -0.001411399794)
(0.01151494135 2.427206852e-19 -0.001468675383)
(0.01205423494 1.29329957e-18 -0.001541993468)
(0.01263069016 -4.437679732e-18 -0.001640691137)
(0.013251571 -5.310470304e-18 -0.001760588336)
(0.01395468771 -3.483231648e-18 -0.002141469311)
(0.0145692774 -1.183743168e-18 -0.0009147427728)
(0.01560061725 3.670760557e-19 -0.01065605378)
(0.008085532277 5.455075519e-19 0.03463800116)
(0.0002658598575 3.132267365e-19 -0.001300707259)
(0.0004560745449 2.806044684e-19 -0.00130548154)
(0.0007165164038 -1.26807006e-17 -0.001309824908)
(0.000988691086 -6.399292026e-19 -0.00131535662)
(0.00126632405 4.694026508e-19 -0.001322372648)
(0.001548058402 3.619323856e-19 -0.001330925532)
(0.001833673759 3.357623443e-19 -0.001340993076)
(0.002123314 6.624754331e-19 -0.001352517259)
(0.002417254811 -1.149878126e-17 -0.001365419173)
(0.002715815026 -2.724568314e-18 -0.00137960634)
(0.00301931703 1.139192843e-17 -0.00139497694)
(0.003328067116 1.480819943e-17 -0.001411423441)
(0.003642345169 3.7135062e-18 -0.001428836042)
(0.003962399531 2.155688273e-19 -0.0014471063)
(0.004288445296 1.56126688e-19 -0.001466131098)
(0.004620665258 3.24729747e-19 -0.001485817127)
(0.004959213247 3.408565329e-19 -0.001506085967)
(0.005304219824 3.303699975e-19 -0.001526879863)
(0.005655800456 3.33918523e-19 -0.001548168304)
(0.006014066363 3.373843678e-19 -0.001569955563)
(0.006379138341 3.523826735e-19 -0.001592289427)
(0.006751163891 3.348156504e-19 -0.001615271389)
(0.007130338139 3.520816778e-19 -0.001639068776)
(0.007516929073 3.489980051e-19 -0.001663929533)
(0.00791130781 3.474402995e-19 -0.001690200726)
(0.008313984788 3.596874972e-19 -0.001718352385)
(0.008725652831 3.593635476e-19 -0.001749009333)
(0.009147238129 3.741326974e-19 -0.001782995242)
(0.009579959756 3.46834641e-19 -0.001821395797)
(0.0100253968 3.155322712e-19 -0.001865652681)
(0.01048555795 3.158589911e-19 -0.001917708491)
(0.01096293771 2.861573299e-19 -0.001980237695)
(0.01146051995 1.766775361e-19 -0.002057036865)
(0.01198164769 1.344937956e-18 -0.002153588395)
(0.01252945417 -4.544807626e-18 -0.002279789064)
(0.01310500998 -5.376636179e-18 -0.002429477483)
(0.0137004793 -3.410118537e-18 -0.002859099151)
(0.0143022831 -1.018545058e-18 -0.001539144041)
(0.01493121192 4.257079188e-19 -0.01168001942)
(0.007530819858 5.265934739e-19 0.04566667051)
(0.0002646484898 3.136729926e-19 -0.001675435472)
(0.0004539819325 2.872820835e-19 -0.001680575719)
(0.0007132048445 -1.268504691e-17 -0.001685946454)
(0.0009841096804 -6.378794192e-19 -0.001693044662)
(0.001260481345 4.718496508e-19 -0.001702125921)
(0.001540991879 3.623177796e-19 -0.001713224305)
(0.001825437914 3.358664617e-19 -0.001726298642)
(0.002113974917 6.595046406e-19 -0.00174126861)
(0.002406887065 -1.150905242e-17 -0.001758029354)
(0.002704499497 -2.70799168e-18 -0.001776459161)
(0.003007138918 1.141318022e-17 -0.001796424501)
(0.003315113794 1.481326483e-17 -0.00181778435)
(0.003628703773 3.694479026e-18 -0.001840394453)
(0.003948154201 2.087945265e-19 -0.001864111895)
(0.004273673997 1.590005798e-19 -0.001888800154)
(0.004605436129 3.179061114e-19 -0.001914334787)
(0.00494358041 3.388418817e-19 -0.001940609907)
(0.005288218576 3.348958658e-19 -0.001967545523)
(0.005639441738 3.325016574e-19 -0.001995095875)
(0.00599733035 3.319542857e-19 -0.00202325896)
(0.006361966922 3.351361355e-19 -0.002052087468)
(0.006733451717 3.36420311e-19 -0.002081701466)
(0.0071119217 3.520134345e-19 -0.002112303314)
(0.007497573021 3.556985547e-19 -0.002144195577)
(0.00789068727 3.514233444e-19 -0.002177803052)
(0.008291661676 3.597092082e-19 -0.002213700528)
(0.008701043047 3.610111057e-19 -0.002252648759)
(0.009119564456 3.703805201e-19 -0.002295642536)
(0.009548181952 3.459041806e-19 -0.002343976617)
(0.0099881046 3.040107035e-19 -0.002399338548)
(0.0104408024 2.744245083e-19 -0.002463942033)
(0.01090795846 3.086435224e-19 -0.002540722454)
(0.01139129695 1.757323943e-19 -0.002633640368)
(0.01189219519 1.319361274e-18 -0.002748087973)
(0.01241054625 -4.660779506e-18 -0.002892956074)
(0.01294492844 -5.422840401e-18 -0.003060788889)
(0.01346627324 -3.312777418e-18 -0.003484487477)
(0.01403481713 -8.226771124e-19 -0.002213277599)
(0.01443980861 4.36730312e-19 -0.01221985086)
(0.007172907556 5.253680464e-19 0.0561306306)
(0.0002630739022 3.141057542e-19 -0.002048195806)
(0.0004512684988 2.822410157e-19 -0.002053681627)
(0.0007089366712 -1.268889947e-17 -0.002060066104)
(0.000978240026 -6.277977009e-19 -0.002068741333)
(0.001253026358 4.665182228e-19 -0.002079920087)
(0.001531998507 3.613828257e-19 -0.002093612595)
(0.001814973098 3.365601381e-19 -0.002109755125)
(0.002102120206 6.557000943e-19 -0.002128242526)
(0.002393735185 -1.15273806e-17 -0.002148942013)
(0.002690151672 -2.683978405e-18 -0.002171700871)
(0.002991702321 1.143123204e-17 -0.002196351984)
(0.003298698833 1.48004074e-17 -0.002222718765)
(0.003611421045 3.664226591e-18 -0.002250620164)
(0.003930111016 2.086247796e-19 -0.002279876112)
(0.004254970386 1.578545335e-19 -0.002310313611)
(0.004586160274 3.137285024e-19 -0.002341773585)
(0.004923803409 3.380483084e-19 -0.00237411868)
(0.00526798846 3.310912311e-19 -0.002407242096)
(0.005618776608 3.357431199e-19 -0.002441077594)
(0.005976210476 3.328171479e-19 -0.002475610848)
(0.006340325548 3.419672121e-19 -0.00251089239)
(0.00671116421 3.49489339e-19 -0.002547052479)
(0.007088792512 3.624382004e-19 -0.002584318345)
(0.007473319647 3.547419943e-19 -0.002623034516)
(0.007864919985 3.497325089e-19 -0.002663687297)
(0.008263857226 3.597208352e-19 -0.002706934782)
(0.008670509548 3.62331801e-19 -0.002753644397)
(0.009085393423 3.656037834e-19 -0.002804940936)
(0.009509181408 3.211821019e-19 -0.00286226888)
(0.009942704639 2.836227002e-19 -0.00292747405)
(0.01038692175 2.977838754e-19 -0.003002909728)
(0.01084282181 3.17833003e-19 -0.003091574746)
(0.01131121449 1.667634571e-19 -0.003197308707)
(0.01179220292 1.315278726e-18 -0.003324934635)
(0.01228381246 -4.725688457e-18 -0.003481487509)
(0.01278358721 -5.423975819e-18 -0.003660036101)
(0.01325538855 -3.225307257e-18 -0.004051348517)
(0.01381468276 -7.200993369e-19 -0.00290750693)
(0.01401944017 5.305959821e-19 -0.01244181473)
(0.006859461004 4.986079784e-19 0.06617888729)
(0.0002611331707 3.140619622e-19 -0.00241847307)
(0.0004479307974 2.871383773e-19 -0.00242428775)
(0.0007037013691 -1.269320529e-17 -0.00243169033)
(0.0009710600232 -6.160777993e-19 -0.002441967521)
(0.001243925905 4.662214315e-19 -0.002455288638)
(0.001521035684 3.598106001e-19 -0.00247163728)
(0.001802228833 3.352621493e-19 -0.002490924526)
(0.002087692859 6.510819988e-19 -0.002513018143)
(0.002377736898 -1.154454014e-17 -0.002537755359)
(0.002672705313 -2.652494008e-18 -0.002564950422)
(0.002972938489 1.148148324e-17 -0.002594400421)
(0.003278752616 1.479756495e-17 -0.002625890722)
(0.00359042839 3.632009762e-18 -0.002659200641)
(0.003908204571 2.010488492e-19 -0.002694109708)
(0.004232274741 1.55720531e-19 -0.002730404723)
(0.004562786508 3.145107546e-19 -0.002767887718)
(0.004899842866 3.386763665e-19 -0.002806385023)
(0.005243505656 3.329171335e-19 -0.002845757509)
(0.005593801147 3.366394786e-19 -0.002885912158)
(0.005950727807 3.318489156e-19 -0.002926815095)
(0.006314266317 3.467019115e-19 -0.002968506331)
(0.00668439186 3.468146728e-19 -0.003011116513)
(0.007061088652 3.502667466e-19 -0.003054886042)
(0.007444366444 3.612918341e-19 -0.003100187159)
(0.007834278586 3.532526408e-19 -0.003147549906)
(0.008230940733 3.600822653e-19 -0.003197692982)
(0.008634548643 3.595161801e-19 -0.00325156089)
(0.009045392125 3.563565919e-19 -0.003310369134)
(0.009463860082 3.213885035e-19 -0.003375659246)
(0.00989042775 3.019596755e-19 -0.003449364844)
(0.01032561238 3.049963074e-19 -0.003533887813)
(0.01076988846 2.916843975e-19 -0.003632191244)
(0.01122347781 1.605284143e-19 -0.003747873738)
(0.01168592468 1.34096447e-18 -0.003885060704)
(0.0121549882 -4.851234956e-18 -0.004048827372)
(0.01262846337 -5.479801987e-18 -0.004233756321)
(0.01306698933 -3.119934519e-18 -0.004581080961)
(0.01363535543 -6.746411584e-19 -0.003630473016)
(0.01364569503 5.31439413e-19 -0.01235891409)
(0.006568315361 5.239765524e-19 0.07584475451)
(0.0002588197347 3.138609596e-19 -0.00278574537)
(0.0004439577478 2.786231965e-19 -0.002791877069)
(0.000697479058 -1.269884807e-17 -0.002800314147)
(0.0009625385332 -6.093759993e-19 -0.002812230868)
(0.001233137494 4.66373008e-19 -0.002827752104)
(0.001508050531 3.600529473e-19 -0.002846833073)
(0.001787143079 3.365716721e-19 -0.002869357627)
(0.002070622957 6.448401122e-19 -0.00289516439)
(0.002358815759 -1.156364811e-17 -0.002924058501)
(0.002652078946 -2.621711787e-18 -0.002955818928)
(0.00295076261 1.152088741e-17 -0.002990204452)
(0.00325518895 1.480361028e-17 -0.003026959529)
(0.003565640484 3.596441097e-18 -0.003065820547)
(0.003882353008 1.959577544e-19 -0.003106522839)
(0.004205511649 1.574080864e-19 -0.003148808651)
(0.004535249271 3.131064657e-19 -0.003192436159)
(0.004871646977 3.366811683e-19 -0.003237189723)
(0.005214736586 3.343287284e-19 -0.003282891473)
(0.005564505143 3.363618572e-19 -0.003329414338)
(0.005920901455 3.342205395e-19 -0.003376696627)
(0.006283844668 3.537689092e-19 -0.003424758367)
(0.006653234824 3.501605462e-19 -0.003473719659)
(0.007028965236 3.574565314e-19 -0.003523821291)
(0.007410936309 3.598321237e-19 -0.003575448035)
(0.007799070139 3.537220996e-19 -0.003629155331)
(0.008193324869 3.615568283e-19 -0.003685700033)
(0.008593707032 3.559336424e-19 -0.003746075904)
(0.0090002791 3.439865133e-19 -0.003811554665)
(0.009413157784 3.013187632e-19 -0.003883732626)
(0.009832497262 2.804246438e-19 -0.003964582112)
(0.01025845398 3.149754493e-19 -0.004056506874)
(0.01069111692 2.845614786e-19 -0.004162402446)
(0.0111303547 1.594889847e-19 -0.004285618243)
(0.01157564492 1.324987271e-18 -0.004429793084)
(0.01202565423 -4.939658417e-18 -0.004598691765)
(0.0124811218 -5.508648866e-18 -0.004789530614)
(0.01290520987 -3.030166719e-18 -0.005090345937)
(0.01347613175 -5.608176729e-19 -0.004374763393)
(0.0132913428 5.690145552e-19 -0.01198223195)
(0.006295442166 4.91017645e-19 0.08514616326)
(0.0002561240416 3.142780259e-19 -0.003149479434)
(0.0004393327932 2.781444787e-19 -0.003155921173)
(0.0006902424731 -1.270669542e-17 -0.003165418602)
(0.0009526361394 -6.002998122e-19 -0.003179023932)
(0.001220609421 4.675322112e-19 -0.003196816057)
(0.001492979738 3.599561825e-19 -0.00321872039)
(0.001769641969 3.367878096e-19 -0.003244591818)
(0.002050827343 6.381185344e-19 -0.003274237879)
(0.002336880763 -1.158132601e-17 -0.003307429473)
(0.002628175373 -2.579182847e-18 -0.003343907867)
(0.002925073221 1.154651466e-17 -0.003383390762)
(0.003227904344 1.480285749e-17 -0.003425578486)
(0.003536954411 3.558137153e-18 -0.003470160779)
(0.003852456988 1.837304406e-19 -0.003516824477)
(0.004174588791 1.613923098e-19 -0.003565262329)
(0.004503467211 3.205265157e-19 -0.003615183013)
(0.004839149843 3.392496695e-19 -0.003666322519)
(0.005181635924 3.342023858e-19 -0.003718456999)
(0.005530869684 3.292162349e-19 -0.003771417172)
(0.005886745626 3.418099916e-19 -0.003825104343)
(0.006249115686 3.598131063e-19 -0.003879508183)
(0.006617798153 3.545737795e-19 -0.003934726456)
(0.006992588112 3.592389842e-19 -0.00399098684)
(0.007373268962 3.615621628e-19 -0.004048671058)
(0.007759624291 3.567655692e-19 -0.004108341785)
(0.008151449073 3.66786265e-19 -0.004170772784)
(0.008548558584 3.487056041e-19 -0.004236982237)
(0.008950792135 3.383563626e-19 -0.004308269131)
(0.009358009434 3.031122691e-19 -0.004386252914)
(0.009770077193 2.806290396e-19 -0.004472914342)
(0.01018685227 2.71187203e-19 -0.004570645375)
(0.0106081222 3.203543213e-19 -0.004682261327)
(0.01103352229 2.040805647e-19 -0.004810935312)
(0.01146254968 1.371011366e-18 -0.004960109989)
(0.01189459176 -5.085971901e-18 -0.005133098249)
(0.01233307196 -5.575157923e-18 -0.005331662182)
(0.01275368453 -2.941279255e-18 -0.005595270905)
(0.01338980901 -3.648654481e-19 -0.005163298603)
(0.01302620652 5.968133631e-19 -0.0113013304)
(0.006049899549 4.746194086e-19 0.09410755322)
(0.0002530337838 3.128784558e-19 -0.003509126549)
(0.000434034701 2.717873046e-19 -0.003515875996)
(0.0006819576975 -1.271475286e-17 -0.003526467934)
(0.0009413053005 -5.830401859e-19 -0.003541821891)
(0.001206280473 4.678520142e-19 -0.003561968853)
(0.001475748999 3.608445663e-19 -0.003586803055)
(0.001749639086 3.385522717e-19 -0.003616148808)
(0.002028208746 6.324193763e-19 -0.003649780678)
(0.002311825312 -1.160681222e-17 -0.003687433122)
(0.002600880478 -2.535711799e-18 -0.003728807138)
(0.002895750818 1.159365266e-17 -0.003773576342)
(0.003196776407 1.48003126e-17 -0.003821393407)
(0.003504247806 3.514013795e-18 -0.003871897305)
(0.003818397554 1.770145463e-19 -0.003924721606)
(0.004139394508 1.688600262e-19 -0.003979504061)
(0.004467340399 3.275891297e-19 -0.004035897579)
(0.004802268307 3.432180987e-19 -0.004093582672)
(0.005144142979 3.391659957e-19 -0.004152281517)
(0.005492862991 3.357149985e-19 -0.004211773665)
(0.005848264761 3.538521472e-19 -0.004271913419)
(0.006210128348 3.686523456e-19 -0.004332648955)
(0.00657818489 3.61851938e-19 -0.004394043267)
(0.006952125392 3.64966287e-19 -0.004456297002)
(0.007331610413 3.61415966e-19 -0.004519773209)
(0.007716279986 3.638313465e-19 -0.00458502428)
(0.00810576293 3.666608494e-19 -0.00465282137)
(0.00849968331 3.379370827e-19 -0.004724185047)
(0.008897662637 3.402529068e-19 -0.004800417845)
(0.009299317999 3.107588047e-19 -0.004883139614)
(0.009704258288 2.988130167e-19 -0.004974324225)
(0.01011206948 2.913245514e-19 -0.005076343181)
(0.01052227403 3.187936935e-19 -0.005191936476)
(0.01093432633 2.119218787e-19 -0.005324194003)
(0.01134769518 1.372820888e-18 -0.00547654527)
(0.01176190426 -5.168087129e-18 -0.005652265875)
(0.01218069058 -5.599428708e-18 -0.005858732159)
(0.01258362582 -2.827164743e-18 -0.006094948427)
(0.01323868264 -2.819985653e-19 -0.006007802012)
(0.01272487864 6.391972234e-19 -0.01033497574)
(0.005816577005 4.201702447e-19 0.1027509312)
(0.0002495341096 3.030951134e-19 -0.003864118816)
(0.0004280379726 2.612633237e-19 -0.003871178175)
(0.0006725845065 -1.272311932e-17 -0.003882906594)
(0.0009284903694 -5.669458067e-19 -0.003900079934)
(0.001190079628 4.64151067e-19 -0.003922679118)
(0.001456272478 3.613104549e-19 -0.003950565795)
(0.001727034732 3.409837824e-19 -0.003983532146)
(0.002002654889 6.254254314e-19 -0.004021317888)
(0.002283526141 -1.163663808e-17 -0.004063618791)
(0.002570061945 -2.485813152e-18 -0.004110092893)
(0.002862656349 1.166352102e-17 -0.004160366514)
(0.00316166209 1.478825988e-17 -0.004214040871)
(0.003467376843 3.465827454e-18 -0.004270699699)
(0.003780033823 1.72681963e-19 -0.004329918086)
(0.004099795149 1.755340531e-19 -0.004391272775)
(0.004426747311 3.270112724e-19 -0.004454354031)
(0.004760898508 3.465382369e-19 -0.004518779119)
(0.005102177786 3.409075628e-19 -0.004584207527)
(0.005450435971 3.576802588e-19 -0.004650357939)
(0.005805448435 3.614009055e-19 -0.004717026937)
(0.006166919614 3.61243542e-19 -0.004784109402)
(0.006534489136 3.621576248e-19 -0.004851620617)
(0.00690773926 3.671169185e-19 -0.004919720031)
(0.007286203225 3.323019423e-19 -0.004988736563)
(0.007669374023 3.628641029e-19 -0.005059195689)
(0.008056712488 3.564528076e-19 -0.005131848008)
(0.008447651879 3.244721124e-19 -0.005207696523)
(0.008841601171 3.235193534e-19 -0.005288028611)
(0.009237946319 3.045836849e-19 -0.005374447631)
(0.009636055183 3.252285646e-19 -0.005468914155)
(0.01003525569 3.186449283e-19 -0.005573759627)
(0.01043481458 3.163551673e-19 -0.005691667827)
(0.01083398621 2.443647824e-19 -0.005825716978)
(0.01123211698 1.34636624e-18 -0.005979409007)
(0.0116287013 -5.242635088e-18 -0.006156076824)
(0.01202639915 -5.656163645e-18 -0.006368036795)
(0.01240175532 -2.697349897e-18 -0.006575568467)
(0.01299617271 -2.245341966e-19 -0.006835873557)
(0.0123502327 6.617269228e-19 -0.009182092881)
(0.005589136191 3.886151177e-19 0.1110854012)
(0.0002456077397 3.152341546e-19 -0.004213865641)
(0.0004213130178 2.682087403e-19 -0.004221241646)
(0.0006620764723 -1.273383831e-17 -0.00423415619)
(0.0009141274854 -5.538886433e-19 -0.004253230438)
(0.001171925706 4.6449465e-19 -0.00427839301)
(0.001434452243 3.574604041e-19 -0.004309471544)
(0.001701715168 3.37089562e-19 -0.004346224542)
(0.001974037521 6.113953977e-19 -0.00438835502)
(0.002251842144 -1.166597991e-17 -0.004435517781)
(0.002535567852 -2.437277598e-18 -0.004487325116)
(0.002825629553 1.170099072e-17 -0.004543352679)
(0.003122395751 1.47793757e-17 -0.004603146195)
(0.003426173973 3.394228413e-18 -0.004666229364)
(0.0037372004 1.554536314e-19 -0.004732113188)
(0.004055632136 1.719240775e-19 -0.004800306902)
(0.004381541501 3.154342282e-19 -0.00487033069)
(0.004714912134 3.349786542e-19 -0.004941730168)
(0.005055636874 3.314131291e-19 -0.005014092737)
(0.005403517447 3.412865871e-19 -0.005087065818)
(0.005758265981 3.543573269e-19 -0.005160376866)
(0.006119508345 3.604827941e-19 -0.005233855073)
(0.00648678915 3.493577425e-19 -0.005307454634)
(0.006859578121 3.542988923e-19 -0.005381279438)
(0.007237277606 3.517524896e-19 -0.005455609106)
(0.007619231119 3.480880458e-19 -0.005530926583)
(0.008004729289 3.376756721e-19 -0.005607944194)
(0.008393015018 3.017381879e-19 -0.005687630514)
(0.008783289439 3.200579162e-19 -0.005771242353)
(0.009174718577 2.978258108e-19 -0.005860355438)
(0.009566431009 2.717848938e-19 -0.005956902792)
(0.009957493264 2.558712311e-19 -0.006063157979)
(0.01034692161 2.970107847e-19 -0.006181769639)
(0.01073373216 1.971776579e-19 -0.006315825363)
(0.01111701206 1.377214058e-18 -0.006468915251)
(0.01149592958 -5.434343878e-18 -0.006644430911)
(0.01187164159 -5.649361208e-18 -0.006858119662)
(0.01221943232 -2.675570974e-18 -0.007031806826)
(0.01276951934 -1.404277548e-19 -0.007609636059)
(0.01200632836 6.343380238e-19 -0.007900700446)
(0.005376720365 3.979406565e-19 0.1191238749)
(0.0002412350016 3.132586194e-19 -0.004557750328)
(0.0004138261958 2.603467891e-19 -0.004565454329)
(0.000650380934 -1.274581418e-17 -0.004579612338)
(0.0008981443867 -5.332300675e-19 -0.004600679957)
(0.001151726986 4.614406128e-19 -0.004628531286)
(0.00141017768 3.54962065e-19 -0.004662958517)
(0.001673551822 3.357023843e-19 -0.004703684974)
(0.001942211418 6.000069858e-19 -0.004750375134)
(0.002216613138 -1.17036858e-17 -0.00480264055)
(0.002497225183 -2.381153349e-18 -0.004860044929)
(0.002784487183 1.175712523e-17 -0.004922109766)
(0.003078787047 1.477492484e-17 -0.004988321056)
(0.003380445485 3.325764693e-18 -0.005058137402)
(0.003689704558 1.441648806e-19 -0.005130999737)
(0.004006718753 1.729893714e-19 -0.005206342849)
(0.004331547984 3.16839672e-19 -0.005283608864)
(0.004664152362 3.310529881e-19 -0.005362262734)
(0.005004388747 3.303735999e-19 -0.005441809711)
(0.00535200913 3.462637205e-19 -0.005521814863)
(0.005706660917 3.528324774e-19 -0.005601924445)
(0.006067889158 3.578096354e-19 -0.005681888973)
(0.006435140583 3.487422534e-19 -0.005761587743)
(0.006807769239 3.507935898e-19 -0.005841054565)
(0.007185043746 3.586505348e-19 -0.005920504911)
(0.007566155182 3.464489416e-19 -0.006000363826)
(0.007950221848 3.32244378e-19 -0.006081288039)
(0.00833629698 3.021908616e-19 -0.00616419811)
(0.008723378506 3.119360759e-19 -0.006250307363)
(0.00911041726 2.946028068e-19 -0.006341155084)
(0.009496295398 2.783308662e-19 -0.00643861617)
(0.009879818266 2.670094294e-19 -0.006544905608)
(0.01025975178 2.881902022e-19 -0.006662647151)
(0.01063483036 2.464706427e-19 -0.006794910452)
(0.01100376878 1.386168053e-18 -0.00694532067)
(0.01136524331 -5.529305874e-18 -0.007117247811)
(0.01171921661 -5.667465114e-18 -0.00732866647)
(0.01204121622 -2.554395494e-18 -0.007465214632)
(0.01254549619 -8.592949099e-20 -0.008337669238)
(0.0116761602 6.473650699e-19 -0.006500277092)
(0.00517782748 3.676275712e-19 0.1268845077)
(0.0002363938297 3.156429814e-19 -0.004895126701)
(0.0004055397889 2.503934418e-19 -0.004903174797)
(0.0006374388955 -1.275999067e-17 -0.00491864143)
(0.0008804601764 -5.117159619e-19 -0.004941806066)
(0.001129380801 4.582450405e-19 -0.004972486164)
(0.001383324896 3.543771914e-19 -0.005010437096)
(0.001642400486 3.357630568e-19 -0.005055345561)
(0.001907013347 5.889175079e-19 -0.005106835728)
(0.002177658574 -1.17450012e-17 -0.005164473648)
(0.002454838248 -2.318132955e-18 -0.005227771593)
(0.002739021109 1.183656168e-17 -0.005296193337)
(0.003030618699 1.475380883e-17 -0.005369160765)
(0.003329968885 3.252575577e-18 -0.005446062079)
(0.003637323217 1.412686074e-19 -0.005526261846)
(0.003952836688 1.77360403e-19 -0.005609113035)
(0.004276559326 3.153910531e-19 -0.005693971232)
(0.004608429509 3.294778842e-19 -0.005780211099)
(0.004948269082 3.315132657e-19 -0.005867245014)
(0.005295780375 3.334640291e-19 -0.005954543894)
(0.005650545253 3.362098206e-19 -0.006041660029)
(0.006012026273 3.50245836e-19 -0.006128251642)
(0.006379569899 3.490891744e-19 -0.006214108815)
(0.006752411731 3.446720559e-19 -0.006299180581)
(0.007129684392 3.811641628e-19 -0.006383603948)
(0.007510422382 3.624179406e-19 -0.006467728703)
(0.007893569484 3.243883088e-19 -0.006552142282)
(0.008277991682 3.053472884e-19 -0.006637705119)
(0.008662487304 2.838740456e-19 -0.006725576301)
(0.00904577726 3.001510996e-19 -0.006817235635)
(0.009426497255 2.902810969e-19 -0.006914484757)
(0.009803219139 2.940368429e-19 -0.007019488057)
(0.01017445004 2.945861391e-19 -0.007134822347)
(0.01053861532 2.785192996e-19 -0.007263500889)
(0.01089403832 1.338195066e-18 -0.007409098457)
(0.01123880499 -5.605163751e-18 -0.007574822912)
(0.01157164438 -5.696162156e-18 -0.007780087918)
(0.01186999469 -2.427296295e-18 -0.007878177826)
(0.01233363861 -4.522095575e-20 -0.009020339522)
(0.01136771372 7.676357522e-19 -0.004994825999)
(0.004992682508 3.4637225e-19 0.1343850217)
(0.0002310597338 3.196293271e-19 -0.005225315697)
(0.0003964119361 2.518607759e-19 -0.005233728903)
(0.0006231848844 -1.276822289e-17 -0.005250577299)
(0.0008609850621 -4.884174542e-19 -0.005275954045)
(0.001104773129 4.57347193e-19 -0.005309618021)
(0.001353756132 3.551341265e-19 -0.005351286495)
(0.001608100521 3.39008839e-19 -0.005400608214)
(0.001868261036 5.807931169e-19 -0.005457165374)
(0.002134776236 -1.178577159e-17 -0.005520476353)
(0.002408187076 -2.244203502e-18 -0.005589999184)
(0.002688996371 1.189906063e-17 -0.005665136344)
(0.002977644161 1.475194789e-17 -0.005745241134)
(0.00327449015 3.184131214e-18 -0.005829625878)
(0.003579799752 1.346131835e-19 -0.005917572187)
(0.003893732387 1.911515998e-19 -0.006008343452)
(0.004216331531 3.251190788e-19 -0.006101199733)
(0.004547516432 3.382689845e-19 -0.006195415175)
(0.004887075664 3.331043276e-19 -0.00629029786)
(0.005234662682 3.515702042e-19 -0.006385212021)
(0.005589793591 3.610244292e-19 -0.006479602452)
(0.005951847266 3.647237132e-19 -0.006573020754)
(0.006320067966 3.570097993e-19 -0.006665152958)
(0.006693570568 3.611061064e-19 -0.006755848418)
(0.007071347788 3.625907746e-19 -0.0068451506)
(0.007452273914 3.512173906e-19 -0.006933316121)
(0.007835117508 3.216039556e-19 -0.007020853063)
(0.008218556584 3.092088013e-19 -0.0071085492)
(0.008601178451 3.137982496e-19 -0.007197492645)
(0.008981476751 2.958796587e-19 -0.007289083404)
(0.009357861237 2.876564462e-19 -0.007385053928)
(0.009728663228 2.952496542e-19 -0.007487508028)
(0.01009212256 3.143393868e-19 -0.007598945838)
(0.0104463701 2.425201367e-19 -0.007722295702)
(0.01078938886 1.378159171e-18 -0.007861016994)
(0.01111889513 -5.756193748e-18 -0.008018056861)
(0.0114327077 -5.689654013e-18 -0.00821355084)