/*--------------------------------*- C++ -*----------------------------------*\
| =========                 |                                                 |
| \\      /  F ield         | OpenFOAM: The Open Source CFD Toolbox           |
|  \\    /   O peration     | Version:  v1912                                 |
|   \\  /    A nd           | Website:  www.openfoam.com                      |
|    \\/     M anipulation  |                                                 |
\*---------------------------------------------------------------------------*/
FoamFile
{
    version     2.0;
    format      ascii;
    class       volScalarField;
    location    "0.9";
    object      alpha.gas_0;
}
// * * * * * * * * * * * * * * * * * * * * * * * * * * * * * * * * * * * * * //

dimensions      [0 0 0 0 0 0 0];


internalField   nonuniform List<scalar> 
4800
(
1.500295942e-165
6.883714102e-166
4.537907389e-166
3.40277938e-166
2.702339639e-166
2.22097272e-166
1.861224704e-166
1.575637053e-166
1.340196009e-166
1.141125467e-166
9.693153554e-167
8.198774218e-167
6.528986777e-167
2.930285748e-164
1.503719088e-163
1.527603228e-163
8.65855166e-164
3.670761824e-164
3.524540955e-162
4.848710668e-159
2.989189138e-156
1.577639748e-153
2.711644981e-151
4.501679353e-148
1.179588111e-149
5.046407229e-137
4.277370177e-137
1.385831859e-146
1.712677541e-111
4.898738813e-108
1.733941974e-123
9.793510493e-82
1.414593353e-80
1.172343276e-82
9.410728354e-66
8.494947198e-87
1.883694425e-53
4.562855293e-71
5.629875872e-05
0.010613505
2.391068972e-163
1.073744838e-163
7.046148578e-164
5.281350864e-164
4.200642444e-164
3.461636342e-164
2.911824515e-164
2.476967708e-164
2.119273584e-164
1.816942517e-164
1.555347468e-164
1.32681328e-164
1.065923181e-164
3.681349139e-162
2.167288702e-161
2.265805004e-161
1.314182524e-161
5.49424049e-162
1.954444602e-160
2.676019476e-157
1.403902099e-154
3.658745865e-152
2.440586642e-150
1.345334559e-146
1.17198119e-149
1.197168617e-136
7.34172165e-134
1.362818527e-146
0
5.478192703e-105
3.208696117e-123
6.136143061e-81
9.634640494e-81
8.239068849e-83
7.626735283e-65
5.390405263e-84
1.71576428e-52
0
0.0001978176816
0.01526381002
1.77295156e-161
7.856537629e-162
5.136363577e-162
3.848133875e-162
3.064786272e-162
2.531667953e-162
2.136858323e-162
1.825878284e-162
1.570797008e-162
1.355427309e-162
1.168712923e-162
1.005008414e-162
8.13827687e-163
2.128995184e-160
1.452388621e-159
1.556258011e-159
9.199919739e-160
3.865672849e-160
4.926759436e-159
6.709696124e-156
3.16358763e-153
3.310559058e-151
2.06356506e-150
2.928996393e-144
9.472194671e-145
6.169280532e-152
5.428970343e-129
5.675558441e-129
1.216984079e-147
1.976231882e-101
0
2.357452075e-79
3.541243347e-98
7.301763329e-64
3.629686343e-62
0
3.412992959e-50
9.055632331e-70
0.0004349171867
0.02068347663
8.352965175e-160
3.664198105e-160
2.387826753e-160
1.788154583e-160
1.425941033e-160
1.180621554e-160
9.99846056e-161
8.581304262e-161
7.423143845e-161
6.447295777e-161
5.600351619e-161
4.855990178e-161
3.964651012e-161
7.704780682e-159
6.165085429e-158
6.760935116e-158
4.070408448e-158
1.733216441e-158
7.883431431e-158
1.03354215e-154
4.531920014e-152
1.541266611e-150
1.034953554e-150
9.855178597e-142
2.618289152e-142
0
6.314388453e-125
4.024681631e-125
0
1.672094708e-98
0
5.562516577e-78
0
4.423803272e-61
6.44427792e-60
0
4.152552562e-48
5.904076224e-67
0.0007250394051
0.02575468111
2.822520391e-158
1.227579887e-158
7.976566671e-159
5.970895819e-159
4.767267134e-159
3.956152129e-159
3.361694085e-159
2.898312539e-159
2.521454069e-159
2.205040575e-159
1.930554605e-159
1.689321692e-159
1.392198406e-159
1.963584854e-157
1.86896926e-156
2.094658201e-156
1.283533327e-156
5.554950547e-157
9.619929085e-157
1.090840091e-153
4.508991537e-151
3.992919853e-150
1.035445894e-150
1.040983615e-140
3.581609315e-141
3.199403538e-160
3.296541956e-122
1.424120088e-122
0
3.749315748e-95
1.901941489e-114
7.485692136e-77
7.648485093e-96
7.408569039e-59
4.441730444e-58
5.682388124e-78
2.539757201e-46
1.833609656e-67
0.001102447292
0.03016362157
7.29799002e-157
3.149536536e-157
2.041020947e-157
1.52725235e-157
1.220901948e-157
1.015550053e-157
8.659717266e-158
7.501837932e-158
6.566429042e-158
5.785817647e-158
5.111220465e-158
4.521604388e-158
3.771380348e-158
3.74864191e-156
4.312655211e-155
4.931678898e-155
3.074130869e-155
1.353616038e-155
1.090872042e-155
8.341658146e-153
3.254005926e-150
7.476280252e-150
1.175580957e-150
1.048169135e-140
1.044988144e-140
3.376576853e-161
1.238068682e-120
6.872093932e-121
1.418015947e-139
3.562982871e-92
0
6.189508209e-76
1.34564667e-95
3.388235276e-57
1.374965819e-56
2.218757169e-76
4.908524067e-45
5.865326943e-69
0.001453299895
0.03401885825
1.502590144e-155
6.437230969e-156
4.161016598e-156
3.112672511e-156
2.491608981e-156
2.077724198e-156
1.77841726e-156
1.54879729e-156
1.365109635e-156
1.213505586e-156
1.083980133e-156
9.72879506e-157
8.258469926e-157
5.559498229e-155
7.871429418e-154
9.166434545e-154
5.810116357e-154
2.604055462e-154
1.34465254e-154
4.768415328e-152
1.746717167e-149
3.041275879e-149
3.445861281e-147
4.248835651e-147
6.899650442e-138
1.105396001e-153
4.834958708e-120
5.595685288e-118
1.315473353e-137
6.530474067e-90
1.272889054e-108
3.119155088e-75
4.729225807e-94
4.669165526e-56
2.12790905e-55
0
2.980729948e-44
1.5902675e-66
0.001837385333
0.0374408946
2.530315903e-154
1.076286787e-154
6.940464754e-155
5.191032986e-155
4.16168198e-155
3.480340604e-155
2.99205745e-155
2.622130162e-155
2.330903928e-155
2.095783723e-155
1.900966915e-155
1.742927683e-155
1.522290087e-155
6.551509779e-154
1.164792174e-152
1.37787444e-152
8.878211293e-153
4.052177154e-153
1.754489754e-153
2.073475466e-151
7.038586388e-149
6.534656647e-148
6.638988452e-146
3.838232811e-153
3.180291798e-135
9.378796776e-135
1.386247641e-138
1.258191412e-113
4.91222329e-133
4.649390594e-88
0
1.01653418e-74
3.691845848e-93
2.852430725e-55
1.775671964e-54
0
3.191695476e-44
6.531278362e-65
0.002403602679
0.04045382823
3.552907929e-153
1.500529479e-153
9.654973251e-154
7.222271323e-154
5.801758023e-154
4.869494401e-154
4.209726569e-154
3.719605763e-154
3.345116844e-154
3.057537079e-154
2.839489367e-154
2.694498601e-154
2.469675202e-154
6.223436982e-153
1.420288361e-151
1.700835265e-151
1.113631125e-151
5.18047344e-152
2.151784191e-152
6.926099915e-151
1.979915517e-148
1.811974858e-146
1.5173245e-142
4.021763847e-153
4.867228994e-133
1.527435087e-132
2.417150216e-150
2.337498779e-109
2.046111602e-128
2.480834902e-86
1.181420226e-104
3.969071515e-74
0
1.02113211e-54
8.002351177e-54
0
3.186279302e-44
1.788388358e-64
0.002982137444
0.04315070873
4.223229756e-152
1.770868257e-152
1.137364078e-152
8.514256252e-153
6.860105654e-153
5.787555884e-153
5.043498626e-153
4.510168786e-153
4.128769345e-153
3.874520921e-153
3.742084247e-153
3.758619197e-153
3.725230833e-153
4.819948904e-152
1.442009417e-150
1.739879407e-150
1.156313231e-150
5.490681756e-151
2.308020192e-151
1.801062125e-150
1.807334475e-150
9.672300009e-142
1.750489669e-140
4.682930585e-153
2.312271666e-131
6.982318965e-131
0
9.78502004e-106
0
8.806400292e-85
5.416942361e-104
2.466203371e-73
1.526444815e-92
2.572516692e-54
1.333404249e-53
5.567675586e-73
3.182154909e-44
0
0.003545482395
0.04558339295
4.30850497e-151
1.793551406e-151
1.150719831e-151
8.632142889e-152
6.990551095e-152
5.946960189e-152
5.249330379e-152
4.786994978e-152
4.514261554e-152
4.430380432e-152
4.568206287e-152
5.008038701e-152
5.543347091e-152
3.122100072e-151
1.225449547e-149
1.481168229e-149
9.963592428e-150
4.842738875e-150
2.110814601e-150
3.829981811e-150
1.808775748e-150
2.30227714e-137
1.004418752e-138
5.399170425e-153
4.454051528e-130
1.355978877e-129
4.335920382e-149
5.509497292e-103
2.431582746e-122
1.594547315e-83
0
4.356453904e-73
4.189469938e-92
6.201469936e-54
1.334637827e-53
3.006596114e-72
3.174860022e-44
0
0.004095963456
0.04779809379
3.832008561e-150
1.583657197e-150
1.0167105e-150
7.665618562e-151
6.267938583e-151
5.411987101e-151
4.884813911e-151
4.607661581e-151
4.573405625e-151
4.83527851e-151
5.495796612e-151
6.743226704e-151
8.481198359e-151
1.915360178e-150
8.696285993e-149
1.047768964e-148
7.102035906e-149
3.555534163e-149
1.636859052e-149
7.195712831e-150
1.810240621e-150
8.046124578e-135
5.930230492e-136
1.482391413e-154
4.691312837e-126
2.113480759e-127
3.804142792e-146
8.002837866e-101
1.107597607e-119
1.110714555e-82
3.27063273e-101
4.371724991e-73
9.027560382e-92
6.391290545e-54
3.798931607e-54
0
2.078579434e-45
0
0.004638913797
0.04983078615
3.038389262e-149
1.247006766e-149
8.042502944e-150
6.137030348e-150
5.115756361e-150
4.538977523e-150
4.259197938e-150
4.25615768e-150
4.591932191e-150
5.392169087e-150
6.84555784e-150
9.469272308e-150
1.346419515e-149
1.669352593e-149
5.077721172e-148
6.089564996e-148
4.154975533e-148
2.182187635e-148
1.090486965e-148
6.504906527e-150
2.722594587e-148
8.884672392e-134
3.559249904e-132
3.605589446e-151
1.106173982e-120
1.991399133e-122
3.2333409e-143
6.552797781e-99
0
1.490478318e-82
6.295372639e-101
4.366230406e-73
0
6.386996176e-54
0
3.121862453e-48
0
1.352928718e-06
0.005174622435
0.05171026748
2.224698292e-148
9.081379697e-149
5.938718729e-149
4.655157862e-149
4.023366708e-149
3.736982406e-149
3.737413703e-149
4.09222077e-149
4.925449285e-149
6.370967809e-149
8.855837569e-149
1.413606477e-148
2.166711419e-148
2.446976467e-148
2.387012013e-147
2.838494929e-147
1.9899986e-147
1.156620358e-147
6.608473852e-148
2.797601705e-155
2.648946037e-137
7.337748496e-151
3.034055387e-127
0
4.229620549e-117
1.332360542e-118
0
4.162438645e-97
4.175224539e-116
1.489020777e-82
0
4.358377794e-73
0
6.384512682e-54
0
1.731700957e-47
0
5.326485427e-06
0.005706819139
0.05345659555
1.587648038e-147
6.478687871e-148
4.372647305e-148
3.592345564e-148
3.272219936e-148
3.261856735e-148
3.627610002e-148
4.449954241e-148
5.73205674e-148
7.574781342e-148
1.214849118e-147
2.298484444e-147
3.187133144e-147
3.519916617e-147
9.469167246e-147
1.083164027e-146
8.44884306e-147
5.950253496e-147
4.001972936e-147
3.606104054e-159
1.538885767e-132
5.020234922e-151
8.800972473e-124
3.402698544e-125
1.661857965e-115
8.177647754e-116
8.094027827e-135
1.052670805e-95
1.305882907e-114
1.488525343e-82
5.555784354e-101
4.348065568e-73
0
6.373825324e-54
0
2.009495218e-47
5.078257068e-66
1.191687568e-05
0.006240359414
0.05508416959
1.193474312e-146
4.883098964e-147
3.426124949e-147
2.937017682e-147
2.869540348e-147
3.360687052e-147
4.3641015e-147
5.385110603e-147
6.349107825e-147
8.482620108e-147
2.268167261e-146
3.560024409e-146
3.406145378e-146
3.695590773e-146
5.946581732e-146
8.191787912e-146
7.698824944e-146
5.409010999e-146
3.205764812e-146
6.502224381e-160
6.645059245e-129
3.328139382e-148
7.628959229e-122
1.741268471e-123
0
5.663998814e-111
1.674581063e-129
8.406410216e-95
1.254803689e-113
1.488369763e-82
0
4.337424901e-73
0
5.209122786e-54
0
2.008603172e-47
1.807195283e-70
2.064337344e-05
0.006775275054
0.0566078129
1.012341935e-145
3.972263226e-146
2.73887735e-146
2.424209287e-146
3.113933356e-146
5.340695735e-146
6.277557238e-146
5.673975982e-146
5.654690029e-146
1.549485622e-145
1.564586762e-144
1.917599719e-143
1.735712549e-142
9.565516543e-142
2.990642331e-141
5.294425451e-141
5.013734644e-141
3.019863932e-141
1.357922148e-141
1.723728133e-159
1.251679508e-126
0
4.129043275e-121
6.884041506e-120
4.888401416e-139
5.090653304e-106
5.043301895e-125
2.538570648e-94
2.104948042e-113
1.483668043e-82
0
4.102263574e-73
1.754773473e-92
2.822229801e-54
3.226305425e-73
2.008919496e-47
4.168385686e-68
3.104520622e-05
0.007310527244
0.05804182222
8.701816754e-145
2.96599178e-145
1.9745513e-145
2.88218996e-145
9.960822217e-145
4.255321381e-144
2.008246652e-143
1.228952626e-142
1.037515868e-141
1.162948066e-140
1.519800782e-139
1.873710688e-138
1.674063786e-137
9.085099037e-137
2.787741677e-136
4.863119029e-136
4.408909956e-136
2.560776839e-136
1.123333595e-136
5.756367429e-155
1.790739765e-125
2.552503499e-126
0
5.275369405e-115
1.449028197e-133
4.927700814e-101
8.535454459e-121
3.598144189e-94
0
1.474685909e-82
0
2.968536365e-73
3.238444984e-92
8.222518398e-55
0
1.74551028e-47
1.489717104e-68
4.28259598e-05
0.007845184861
0.05939865667
8.284703259e-142
8.796147618e-142
2.986688777e-141
1.584801627e-140
8.309830141e-140
3.826226553e-139
1.820021267e-138
1.114105691e-137
9.42644075e-137
1.06016038e-135
1.388354123e-134
1.702369679e-133
1.500662401e-132
8.022695157e-132
2.423736567e-131
4.157230114e-131
3.600377551e-131
2.014054864e-131
8.657792197e-132
0
3.711963945e-125
4.424872135e-123
0
1.167190034e-110
0
7.925723414e-98
1.809762749e-115
3.666391222e-94
1.460540714e-112
1.273413888e-82
0
1.309648354e-73
1.150116617e-92
9.835412293e-56
0
9.461522795e-48
1.5610606e-69
5.584188771e-05
0.008378706451
0.06068800172
6.045333047e-137
6.51661363e-137
2.339469092e-136
1.289319542e-135
6.942102467e-135
3.231584447e-134
1.540032784e-133
9.427368412e-133
7.990642677e-132
9.013995138e-131
1.182870748e-129
1.441031603e-128
1.253179458e-127
6.603346763e-127
1.9653547e-126
3.311110804e-126
2.736760419e-126
1.472281901e-126
6.201299568e-127
3.979366325e-127
3.467783458e-136
2.774424561e-119
0
7.087260824e-108
1.463076511e-109
2.22710373e-96
4.193427497e-97
3.679503163e-94
1.564390162e-112
7.752320306e-83
7.799345821e-102
2.722139004e-74
5.274241196e-93
3.452082059e-57
0
2.339890631e-48
1.909079439e-71
7.00130141e-05
0.008910406037
0.06191622775
4.153416627e-132
4.543521466e-132
1.720809268e-131
9.827823436e-131
5.426926077e-130
2.552904121e-129
1.218774535e-128
7.45945947e-128
6.330520199e-127
7.162770625e-126
9.416655957e-125
1.138440658e-123
9.769707563e-123
5.076768534e-122
1.489400095e-121
2.460262476e-121
1.940447877e-121
1.002083409e-121
4.14844573e-122
2.941708328e-122
5.449374498e-136
1.223067664e-116
0
1.96622221e-106
3.50437989e-108
0
4.076247223e-92
5.318788246e-93
0
3.693848511e-84
0
1.815773497e-75
0
2.507043704e-59
0
1.841798799e-49
3.613477871e-73
8.555235981e-05
0.009439409415
0.06308744133
2.692686122e-127
2.986479893e-127
1.190303411e-126
7.027879914e-126
3.975815774e-125
1.889620903e-124
9.03615395e-124
5.52732597e-123
4.694318475e-122
5.32912458e-121
7.014494009e-120
8.406879726e-119
7.124194202e-118
3.652394174e-117
1.056765012e-116
1.706868773e-116
1.285578471e-116
6.360247163e-117
2.606255247e-117
2.009035398e-117
2.057644515e-117
9.409472647e-115
1.893150835e-130
5.200711183e-106
1.118913394e-105
0
3.366042448e-87
3.544168989e-88
1.927014947e-90
1.43789263e-103
2.2819631e-75
6.206374015e-76
0
2.745531052e-62
0
3.112485852e-51
7.501256138e-70
0.0001023830221
0.009965020502
0.06420667561
1.650680339e-122
1.853533599e-122
7.751472128e-122
4.719758678e-121
2.733496893e-120
1.312533533e-119
6.284980376e-119
3.839914787e-118
3.262745863e-117
3.718147762e-116
4.894380066e-115
5.81151295e-114
4.867958198e-113
2.462497621e-112
7.030690159e-112
1.106238641e-111
7.969277821e-112
3.76948828e-112
1.542101578e-112
1.305870701e-112
2.175373989e-112
3.508180048e-112
3.161650613e-112
0
4.03824401e-101
0
2.372234855e-82
1.905113103e-83
7.117345917e-86
1.339720407e-104
1.362297798e-73
5.814473956e-76
1.616118083e-67
1.592835314e-66
0
7.855140322e-54
9.626127311e-79
0.0001210713114
0.01048714138
0.06527916656
9.585700881e-118
1.087636915e-117
4.756321014e-117
2.979536455e-116
1.766139355e-115
8.566864546e-115
4.105240637e-114
2.503481464e-113
2.128399671e-112
2.435781124e-111
3.201500275e-110
3.766361143e-109
3.121630669e-108
1.557656339e-107
4.391579532e-107
6.699498349e-107
4.626838906e-107
2.088472357e-107
8.621832426e-108
8.078645526e-108
1.435980733e-107
2.156898859e-107
2.121548388e-107
2.538264224e-125
1.478228127e-96
6.170872555e-115
5.211414825e-79
4.468401719e-80
2.385766877e-82
1.100237839e-84
5.127076023e-73
1.033072901e-72
1.62620603e-67
2.477066675e-80
3.770580169e-57
1.054569637e-56
2.527499472e-81
0.0001416460761
0.01100602614
0.06630972565
5.280850804e-113
6.040122221e-113
2.751463972e-112
1.769758717e-111
1.073776427e-110
5.259744985e-110
2.520082551e-109
1.533063991e-108
1.304809449e-107
1.499568584e-106
1.964608359e-105
2.291880139e-104
1.880884372e-103
9.251561906e-103
2.578241621e-102
3.791804744e-102
2.517372107e-102
1.082761398e-102
4.570884232e-103
4.741370799e-103
8.950181418e-103
1.347720437e-102
1.336864833e-102
0
1.181005442e-92
3.510718998e-111
3.942388948e-77
6.835452123e-78
1.205038462e-79
2.850049243e-82
1.135373893e-91
1.318936341e-69
1.366261733e-67
1.206189309e-80
3.797061788e-57
3.082256658e-57
3.768764514e-79
0.0001637804038
0.01152164641
0.06730265221
2.762824262e-108
3.176634977e-108
1.501200725e-107
9.900474385e-107
6.150207104e-106
3.039809835e-105
1.454683888e-104
8.825789232e-104
7.526332783e-103
8.679830018e-102
1.131908566e-100
1.311397536e-99
1.065689668e-98
5.162400205e-98
1.424117458e-97
2.005994897e-97
1.283842191e-97
5.256962826e-98
2.302987859e-98
2.645197388e-98
5.272740609e-98
7.971282313e-98
8.019284267e-98
8.77236975e-117
5.784666489e-90
0
2.029080895e-76
3.950257866e-75
8.418124483e-76
1.581841346e-77
1.378926066e-96
3.872065941e-65
2.121976138e-65
0
2.274608059e-57
1.430128182e-57
3.281285299e-80
0.0001871916092
0.01203404021
0.06826017032
1.373499503e-103
1.582625945e-103
7.728050967e-103
5.222286362e-102
3.321512721e-101
1.654361137e-100
7.899587729e-100
4.78129506e-99
4.08862163e-98
4.724245042e-97
6.129157051e-96
7.064649603e-95
5.679878047e-94
2.707593523e-93
7.408277881e-93
9.92233325e-93
6.137179608e-93
2.391653594e-93
1.102583676e-93
1.407283653e-93
2.935714259e-93
4.470883422e-93
4.580563343e-93
7.190164841e-107
3.186657183e-88
7.601539559e-89
1.216549725e-94
2.501101825e-70
5.036632814e-71
8.45712466e-73
1.076683836e-91
4.702505943e-62
3.241037683e-62
0
3.752825093e-56
1.433915333e-56
2.097025359e-77
0.0002118601734
0.01254285714
0.0691809974
6.489778059e-99
7.469609345e-99
3.755771458e-98
2.600307905e-97
1.692240945e-96
8.47965658e-96
4.037952879e-95
2.439992091e-94
2.093020761e-93
2.417851871e-92
3.123198142e-91
3.58605627e-90
2.847608679e-89
1.335503374e-88
3.632925996e-88
4.590918347e-88
2.749448162e-88
1.020035194e-88
5.022008198e-89
7.135219835e-89
1.546287558e-88
2.382763151e-88
2.496392108e-88
1.53138299e-88
5.229120448e-87
2.680043915e-87
1.114371195e-107
1.489297301e-65
2.705340438e-66
3.748034459e-68
8.669440228e-87
4.522524993e-60
5.892124469e-60
0
3.400715986e-55
1.516251145e-55
0
0.0002393546578
0.01304553116
0.0700635318
2.914655803e-94
3.33977687e-94
1.724577163e-93
1.223418133e-92
8.133698011e-92
4.093849613e-91
1.944305266e-90
1.174121244e-89
1.00973586e-88
1.163746935e-87
1.499802643e-86
1.715567682e-85
1.342680203e-84
6.19975056e-84
1.680776485e-83
1.988332531e-83
1.154089717e-83
4.079809605e-84
2.177459445e-84
3.445633613e-84
7.715244518e-84
1.209298664e-83
1.299697501e-83
8.601934957e-84
3.668209563e-84
9.312412223e-85
4.443416893e-103
1.504962605e-61
2.537258644e-62
3.701965701e-64
0
5.533634865e-59
1.263250911e-58
0
3.418841047e-55
3.290598808e-55
3.2840762e-74
0.0002679197152
0.01354252776
0.07090959428
1.244441158e-89
1.414832286e-89
7.490057837e-89
5.442057342e-88
3.687118858e-87
1.862138834e-86
8.827431329e-86
5.33134863e-85
4.588989412e-84
5.27044993e-83
6.796532331e-82
7.731629491e-81
5.953591621e-80
2.711748794e-79
7.338456323e-79
8.068958857e-79
4.53741805e-79
1.530853849e-79
8.98766584e-80
1.584288696e-79
3.652818235e-79
5.856948428e-79
6.468753901e-79
4.299048538e-79
1.823771682e-79
4.668992435e-80
0
5.68963964e-59
1.069168786e-59
2.373552495e-61
5.225251128e-80
1.657382039e-58
1.909772343e-58
2.473761443e-64
2.613451846e-55
1.401737923e-53
0
0.0002972111234
0.01403375519
0.0717222758
5.053644997e-85
5.681900266e-85
3.080351975e-84
2.288665723e-83
1.575793494e-82
7.985480949e-82
3.78295908e-81
2.284881161e-80
1.963514465e-79
2.248393308e-78
2.908921609e-77
3.279389112e-76
2.483336938e-75
1.119078991e-74
3.021308892e-74
3.07314371e-74
1.669671727e-74
5.391597686e-75
3.530736817e-75
6.936859337e-75
1.644110408e-74
2.711537479e-74
3.077915029e-74
2.0541349e-74
8.781575865e-75
2.339156509e-75
0
1.306645819e-57
5.182293319e-58
3.93367278e-59
3.610325039e-61
1.902206329e-58
1.908666655e-58
3.227666762e-56
3.223305418e-56
4.492625815e-50
1.796535509e-71
0.0003269017349
0.01451979852
0.07250563452
1.953677364e-80
2.165230621e-80
1.200610786e-79
9.094030231e-79
6.348725702e-78
3.231951729e-77
1.531576385e-76
9.238786632e-76
7.905908536e-75
9.04968273e-74
1.175880723e-72
1.307675817e-71
9.752990153e-71
4.363107797e-70
1.169503929e-69
1.102306246e-69
5.736511229e-70
1.783739762e-70
1.31992991e-70
2.893863828e-70
7.046507113e-70
1.200872252e-69
1.39884634e-69
9.377851982e-70
4.052920416e-70
1.137025529e-70
0
3.356139765e-57
3.698513828e-55
1.391805064e-55
8.452603146e-57
2.794967729e-58
1.909772343e-58
6.906914635e-55
3.267071146e-56
2.782303555e-47
0
0.0003565362597
0.0150011383
0.07326461892
7.197026865e-76
7.83896136e-76
4.435803995e-75
3.410693862e-74
2.412576101e-73
1.236176178e-72
5.860098983e-72
3.52093497e-71
2.995845641e-70
3.442785958e-69
4.484412137e-68
4.898861524e-67
3.61186844e-66
1.608597739e-65
4.241879364e-65
3.729616091e-65
1.838437064e-65
5.551378018e-66
4.697135565e-66
1.150892604e-65
2.878572213e-65
5.085296966e-65
6.062124131e-65
4.085671041e-65
1.792067527e-65
5.360760133e-66
9.849893099e-67
9.804708405e-78
1.603170574e-50
6.122447908e-51
3.887626134e-52
2.445566022e-54
6.917604423e-56
6.501472365e-54
3.223305418e-56
4.283015593e-45
2.072400345e-66
0.0003853024764
0.01547804579
0.07400304957
2.528018231e-71
2.698844774e-71
1.552325069e-70
1.206280361e-69
8.658716611e-69
4.47364638e-68
2.117957446e-67
1.263147489e-66
1.069538392e-65
1.239640837e-64
1.610135296e-63
1.72466824e-62
1.263491002e-61
5.607718221e-61
1.437797194e-60
1.188468773e-60
5.495402616e-61
1.630244622e-61
1.592299543e-61
4.364312497e-61
1.120676403e-60
2.055641451e-60
2.499838935e-60
1.696615607e-60
7.592283043e-61
2.37168365e-61
4.848842841e-62
0
6.7238631e-46
2.522448736e-46
1.602023699e-47
1.065841449e-49
8.313240785e-53
3.721349789e-53
3.267071146e-56
2.252328193e-43
0
0.0004132779094
0.01594920198
0.07472011067
8.464231644e-67
8.837337208e-67
5.137190167e-66
4.022572557e-65
2.94059593e-64
1.53258386e-63
7.220571559e-63
4.262116219e-62
3.604682798e-61
4.225668622e-60
5.429377274e-59
5.715385763e-58
4.180682399e-57
1.845873242e-56
4.541955206e-56
3.555607973e-56
1.530793986e-56
4.541368112e-57
5.146045707e-57
1.576899295e-56
4.151980653e-56
7.912886285e-56
9.792021841e-56
6.712366488e-56
3.08535063e-56
1.017799712e-56
2.263139148e-57
0
2.171823824e-41
8.603700793e-42
5.711285305e-43
3.953584921e-45
3.431673673e-48
1.513562621e-51
3.310838521e-56
5.22338523e-42
0
0.0004465348621
0.01640658482
0.07541258361
2.696758663e-62
2.749058237e-62
1.604515852e-61
1.266180392e-60
9.468129163e-60
4.966779677e-59
2.317490005e-58
1.352917942e-57
1.149836957e-56
1.361771713e-55
1.715959774e-54
1.788001565e-53
1.308745448e-52
5.721270317e-52
1.334003637e-51
9.947514345e-52
3.964976043e-52
1.201647826e-52
1.602896447e-52
5.408613894e-52
1.46009746e-51
2.894021847e-51
3.641684332e-51
2.533125102e-51
1.206525753e-51
4.250522017e-52
1.039307783e-52
1.05182825e-70
3.321933403e-38
1.452803023e-38
1.357789668e-39
1.694482064e-41
2.597136902e-44
1.134511578e-47
3.354607516e-56
6.305748227e-41
0
0.0004787253937
0.01685337972
0.07608043993
8.152606753e-58
8.103922124e-58
4.723220903e-57
3.771515634e-56
2.893392857e-55
1.519621513e-54
6.990447347e-54
4.047626418e-53
3.478573958e-52
4.135994542e-51
5.08180376e-50
5.297973511e-49
3.870445646e-48
1.663679109e-47
3.637814176e-47
2.592149318e-47
9.517616756e-48
3.028621921e-48
4.821112872e-48
1.755442524e-47
4.859099777e-47
1.004850397e-46
1.288015939e-46
9.149321293e-47
4.562775149e-47
1.733228182e-47
4.695720441e-48
8.290794222e-67
3.193640801e-36
1.61091964e-36
2.419911421e-37
6.321929475e-39
2.06565104e-41
1.275008843e-44
3.350096902e-56
4.360875341e-40
1.080937124e-60
0.0005091975469
0.01728972061
0.07672485734
2.331148121e-53
2.256922613e-53
1.310794987e-52
1.066624721e-51
8.386957198e-51
4.376332185e-50
1.980974894e-49
1.145209142e-48
9.984851801e-48
1.178822223e-46
1.413774548e-45
1.490272712e-44
1.077824568e-43
4.523282005e-43
9.216017043e-43
6.274109825e-43
2.10869251e-43
7.303897205e-44
1.395079285e-43
5.370397835e-43
1.526803441e-42
3.318708263e-42
4.349949271e-42
3.179406391e-42
1.677743922e-42
6.910222688e-43
2.081842472e-43
2.382967802e-62
3.074766238e-35
2.584641374e-35
8.612322234e-36
6.1405029e-37
5.768708932e-39
6.669531559e-42
3.394606267e-56
1.971338278e-39
2.5375632e-60
0.0005374901594
0.01771536863
0.07734720555
6.292051841e-49
5.924202189e-49
3.438790096e-48
2.872204814e-47
2.29983583e-46
1.18294715e-45
5.285103294e-45
3.075973047e-44
2.71377436e-43
3.138902035e-42
3.715451406e-41
3.978744418e-40
2.813098071e-39
1.148329105e-38
2.176307671e-38
1.410064643e-38
4.294540682e-39
1.689503553e-39
3.858746203e-39
1.542194407e-38
4.530639317e-38
1.047964634e-37
1.410446594e-37
1.068767992e-37
6.017905425e-38
2.686921297e-38
8.990085472e-39
0
4.868460257e-35
7.99944302e-34
4.028099286e-34
6.496669645e-35
2.168269214e-36
1.069268706e-38
1.071732351e-41
6.363969857e-39
0
0.0005637625546
0.01813128762
0.07794910052
1.604390067e-44
1.465771065e-44
8.569438114e-44
7.369650517e-43
5.93904886e-42
2.998750491e-41
1.333893548e-40
7.861247376e-40
6.953074673e-39
7.787861592e-38
9.288842493e-37
1.004749941e-35
6.843855329e-35
2.730289939e-34
4.819626693e-34
2.949343497e-34
8.013280037e-35
3.743795841e-35
1.012074965e-34
4.143087771e-34
1.275977813e-33
3.186657316e-33
4.409971529e-33
3.485531866e-33
2.102949917e-33
1.011805476e-33
3.552312182e-34
6.155796893e-35
5.056546468e-53
2.1956577e-29
1.03223481e-29
1.585320076e-30
5.145777558e-32
2.613454529e-34
2.657986251e-37
1.346092765e-38
5.652399612e-59
0.0005856270209
0.01853620573
0.07853291362
3.882249983e-40
3.431262455e-40
2.039221285e-39
1.797491582e-38
1.436615017e-37
7.151513908e-37
3.203858744e-36
1.909473894e-35
1.669312301e-34
1.80449383e-33
2.220346104e-32
2.385345997e-31
1.54356475e-30
6.127982033e-30
1.00761788e-29
5.758839752e-30
1.366899167e-30
7.903867523e-31
2.496938116e-30
1.040769049e-29
3.447714368e-29
9.382750146e-29
1.329913579e-28
1.101056978e-28
7.114713522e-29
3.648435147e-29
1.349125898e-29
2.597125096e-30
2.1343162e-48
1.306341427e-25
9.442931121e-26
2.855816835e-26
2.129946642e-27
2.439150588e-29
3.833511114e-32
1.712979036e-35
0
0.0006077334862
0.01892880187
0.07910066258
8.978410098e-36
7.65269053e-36
4.646952467e-35
4.144680438e-34
3.243500362e-33
1.617163486e-32
7.351406276e-32
4.385950825e-31
3.731491606e-30
3.943518747e-29
5.069608677e-28
5.283053658e-27
3.226596817e-26
1.311431384e-25
1.994864344e-25
1.048849445e-25
2.127090938e-26
1.575654212e-26
5.753543807e-26
2.462215651e-25
9.064468363e-25
2.674734934e-24
3.848738882e-24
3.351053721e-24
2.3095729e-24
1.244281155e-24
4.94941783e-25
1.076481383e-25
1.308200451e-41
4.785918973e-23
5.793608904e-23
3.414928043e-23
6.363953548e-24
2.177972575e-25
9.276870733e-28
6.124316298e-31
0
0.0006234151689
0.0193122007
0.07965515578
1.996787973e-31
1.637805843e-31
1.01226522e-30
8.968627547e-30
6.853557213e-29
3.499673413e-28
1.608206575e-27
9.451006172e-27
7.719881663e-26
8.266424953e-25
1.097592802e-23
1.083425031e-22
6.313677147e-22
2.682242479e-21
3.721398754e-21
1.762503815e-21
3.009089458e-22
2.934071478e-22
1.231217453e-21
5.580964181e-21
2.336518629e-20
7.319276626e-20
1.058753891e-19
9.759453169e-20
7.126157837e-20
3.963275635e-20
1.792589446e-20
3.984234756e-21
1.808495148e-22
2.153971341e-21
5.016083791e-21
4.021804071e-21
1.440659861e-21
1.305427266e-22
1.749843364e-24
2.580918997e-27
8.835707496e-46
0.0006342263452
0.01968265529
0.08019896842
4.270967393e-27
3.371003072e-27
2.093149884e-26
1.806303312e-25
1.374604181e-24
7.282933944e-24
3.32847165e-23
1.89525762e-22
1.472134955e-21
1.681528829e-20
2.224733542e-19
2.041692704e-18
1.200445792e-17
5.206786244e-17
6.484971438e-17
2.676377432e-17
3.862109929e-18
5.063547854e-18
2.433616463e-17
1.243240591e-16
5.878102929e-16
1.899127512e-15
2.746404751e-15
2.70857937e-15
2.072659073e-15
1.163296558e-15
3.614723944e-16
3.888034109e-17
1.059020441e-18
9.419725044e-20
1.34536214e-19
1.277350877e-19
7.030852021e-20
1.30725916e-20
4.739307994e-22
1.962873584e-24
9.082927687e-43
0.0006482221806
0.02004151083
0.08073104599
8.726315753e-23
6.641492862e-23
4.071214846e-22
3.362701991e-21
2.667293327e-20
1.447467421e-19
6.438216966e-19
3.508675059e-18
2.595587891e-17
3.315649626e-16
4.185393176e-15
3.529796024e-14
1.714540534e-13
4.390613942e-13
4.046178521e-13
1.513884176e-13
4.432800699e-14
8.353909544e-14
4.42127618e-13
1.902887494e-12
6.678215204e-12
1.425762478e-11
1.607155377e-11
1.283619864e-11
7.090966981e-12
2.483338504e-12
4.039719612e-13
2.240607664e-14
5.500071915e-16
5.309552591e-16
3.543903174e-16
2.036948828e-16
6.83650548e-17
1.288306142e-17
1.075747038e-18
1.912621416e-20
9.736595513e-41
0.0006556480111
0.0203839946
0.08125027841
1.677984659e-18
1.236758757e-18
7.360591071e-18
5.746210666e-17
5.067238318e-16
2.717650926e-15
1.155814165e-14
5.989414937e-14
4.165357967e-13
3.208955586e-12
2.078628807e-11
9.316409883e-11
2.616998496e-10
4.128308096e-10
3.144505723e-10
1.294027139e-10
8.976825904e-11
2.292291766e-10
8.748659638e-10
2.663630466e-09
6.343634133e-09
8.889939584e-09
7.78039199e-09
4.638675459e-09
1.802647342e-09
4.04608032e-10
4.089302155e-11
2.040273409e-12
3.348521847e-12
1.769040005e-11
1.859741029e-11
1.143417416e-11
3.64864896e-12
7.113965551e-13
6.613281314e-14
1.342391111e-15
1.027224782e-33
0.0006615942839
0.0207201131
0.08175601607
3.006815892e-14
2.15966903e-14
1.231660762e-13
9.024322698e-13
5.367106609e-12
1.851009503e-11
5.3419089e-11
1.830890506e-10
7.711868844e-10
3.335350982e-09
1.199322132e-08
3.130345e-08
5.53589032e-08
6.154028426e-08
4.280228441e-08
2.449277039e-08
3.096942968e-08
8.00168184e-08
2.099961523e-07
4.449170746e-07
6.958646142e-07
6.666313878e-07
4.416015534e-07
1.927555631e-07
5.527582158e-08
9.29021135e-09
9.694631377e-10
1.638194845e-09
1.446822187e-08
5.939639379e-08
7.876800914e-08
4.562720761e-08