/*--------------------------------*- C++ -*----------------------------------*\
| =========                 |                                                 |
| \\      /  F ield         | OpenFOAM: The Open Source CFD Toolbox           |
|  \\    /   O peration     | Version:  v1912                                 |
|   \\  /    A nd           | Website:  www.openfoam.com                      |
|    \\/     M anipulation  |                                                 |
\*---------------------------------------------------------------------------*/
FoamFile
{
    version     2.0;
    format      ascii;
    class       volScalarField;
    location    "0.9";
    object      alpha.liquid_0;
}
// * * * * * * * * * * * * * * * * * * * * * * * * * * * * * * * * * * * * * //

dimensions      [0 0 0 0 0 0 0];


internalField   nonuniform List<scalar> 
4800
(
1
1
1
1
1
1
1
1
1
1
1
1
1
1
1
1
1
1
1
1
1
1
1
1
1
1
1
1
1
1
1
1
1
1
1
1
1
1
0.9999437012
0.989386495
1
1
1
1
1
1
1
1
1
1
1
1
1
1
1
1
1
1
1
1
1
1
1
1
1
1
1
1
1
1
1
1
1
1
1
1
1
1
0.9998021823
0.98473619
1
1
1
1
1
1
1
1
1
1
1
1
1
1
1
1
1
1
1
1
1
1
1
1
1
1
1
1
1
1
1
1
1
1
1
1
1
1
0.9995650828
0.9793165234
1
1
1
1
1
1
1
1
1
1
1
1
1
1
1
1
1
1
1
1
1
1
1
1
1
1
1
1
1
1
1
1
1
1
1
1
1
1
0.9992749606
0.9742453189
1
1
1
1
1
1
1
1
1
1
1
1
1
1
1
1
1
1
1
1
1
1
1
1
1
1
1
1
1
1
1
1
1
1
1
1
1
1
0.9988975527
0.9698363784
1
1
1
1
1
1
1
1
1
1
1
1
1
1
1
1
1
1
1
1
1
1
1
1
1
1
1
1
1
1
1
1
1
1
1
1
1
1
0.9985467001
0.9659811417
1
1
1
1
1
1
1
1
1
1
1
1
1
1
1
1
1
1
1
1
1
1
1
1
1
1
1
1
1
1
1
1
1
1
1
1
1
1
0.9981626147
0.9625591054
1
1
1
1
1
1
1
1
1
1
1
1
1
1
1
1
1
1
1
1
1
1
1
1
1
1
1
1
1
1
1
1
1
1
1
1
1
1
0.9975963973
0.9595461718
1
1
1
1
1
1
1
1
1
1
1
1
1
1
1
1
1
1
1
1
1
1
1
1
1
1
1
1
1
1
1
1
1
1
1
1
1
1
0.9970178626
0.9568492913
1
1
1
1
1
1
1
1
1
1
1
1
1
1
1
1
1
1
1
1
1
1
1
1
1
1
1
1
1
1
1
1
1
1
1
1
1
1
0.9964545176
0.954416607
1
1
1
1
1
1
1
1
1
1
1
1
1
1
1
1
1
1
1
1
1
1
1
1
1
1
1
1
1
1
1
1
1
1
1
1
1
1
0.9959040365
0.9522019062
1
1
1
1
1
1
1
1
1
1
1
1
1
1
1
1
1
1
1
1
1
1
1
1
1
1
1
1
1
1
1
1
1
1
1
1
1
1
0.9953610862
0.9501692138
1
1
1
1
1
1
1
1
1
1
1
1
1
1
1
1
1
1
1
1
1
1
1
1
1
1
1
1
1
1
1
1
1
1
1
1
1
0.9999986471
0.9948253776
0.9482897325
1
1
1
1
1
1
1
1
1
1
1
1
1
1
1
1
1
1
1
1
1
1
1
1
1
1
1
1
1
1
1
1
1
1
1
1
1
0.9999946735
0.9942931809
0.9465434045
1
1
1
1
1
1
1
1
1
1
1
1
1
1
1
1
1
1
1
1
1
1
1
1
1
1
1
1
1
1
1
1
1
1
1
1
1
0.9999880831
0.9937596406
0.9449158304
1
1
1
1
1
1
1
1
1
1
1
1
1
1
1
1
1
1
1
1
1
1
1
1
1
1
1
1
1
1
1
1
1
1
1
1
1
0.9999793566
0.9932247249
0.9433921871
1
1
1
1
1
1
1
1
1
1
1
1
1
1
1
1
1
1
1
1
1
1
1
1
1
1
1
1
1
1
1
1
1
1
1
1
1
0.9999689548
0.9926894728
0.9419581778
1
1
1
1
1
1
1
1
1
1
1
1
1
1
1
1
1
1
1
1
1
1
1
1
1
1
1
1
1
1
1
1
1
1
1
1
1
0.999957174
0.9921548151
0.9406013433
1
1
1
1
1
1
1
1
1
1
1
1
1
1
1
1
1
1
1
1
1
1
1
1
1
1
1
1
1
1
1
1
1
1
1
1
1
0.9999441581
0.9916212935
0.9393119983
1
1
1
1
1
1
1
1
1
1
1
1
1
1
1
1
1
1
1
1
1
1
1
1
1
1
1
1
1
1
1
1
1
1
1
1
1
0.999929987
0.991089594
0.9380837723
1
1
1
1
1
1
1
1
1
1
1
1
1
1
1
1
1
1
1
1
1
1
1
1
1
1
1
1
1
1
1
1
1
1
1
1
1
0.9999144476
0.9905605906
0.9369125587
1
1
1
1
1
1
1
1
1
1
1
1
1
1
1
1
1
1
1
1
1
1
1
1
1
1
1
1
1
1
1
1
1
1
1
1
1
0.999897617
0.9900349795
0.9357933244
1
1
1
1
1
1
1
1
1
1
1
1
1
1
1
1
1
1
1
1
1
1
1
1
1
1
1
1
1
1
1
1
1
1
1
1
1
0.9998789287
0.9895128586
0.9347208334
1
1
1
1
1
1
1
1
1
1
1
1
1
1
1
1
1
1
1
1
1
1
1
1
1
1
1
1
1
1
1
1
1
1
1
1
1
0.9998583539
0.9889939739
0.9336902743
1
1
1
1
1
1
1
1
1
1
1
1
1
1
1
1
1
1
1
1
1
1
1
1
1
1
1
1
1
1
1
1
1
1
1
1
1
0.9998362196
0.9884783536
0.9326973478
1
1
1
1
1
1
1
1
1
1
1
1
1
1
1
1
1
1
1
1
1
1
1
1
1
1
1
1
1
1
1
1
1
1
1
1
1
0.9998128084
0.9879659598
0.9317398297
1
1
1
1
1
1
1
1
1
1
1
1
1
1
1
1
1
1
1
1
1
1
1
1
1
1
1
1
1
1
1
1
1
1
1
1
1
0.9997881398
0.9874571429
0.9308190026
1
1
1
1
1
1
1
1
1
1
1
1
1
1
1
1
1
1
1
1
1
1
1
1
1
1
1
1
1
1
1
1
1
1
1
1
1
0.9997606453
0.9869544688
0.9299364682
1
1
1
1
1
1
1
1
1
1
1
1
1
1
1
1
1
1
1
1
1
1
1
1
1
1
1
1
1
1
1
1
1
1
1
1
1
0.9997320803
0.9864574722
0.9290904057
1
1
1
1
1
1
1
1
1
1
1
1
1
1
1
1
1
1
1
1
1
1
1
1
1
1
1
1
1
1
1
1
1
1
1
1
1
0.9997027889
0.9859662448
0.9282777242
1
1
1
1
1
1
1
1
1
1
1
1
1
1
1
1
1
1
1
1
1
1
1
1
1
1
1
1
1
1
1
1
1
1
1
1
1
0.9996730983
0.9854802015
0.9274943655
1
1
1
1
1
1
1
1
1
1
1
1
1
1
1
1
1
1
1
1
1
1
1
1
1
1
1
1
1
1
1
1
1
1
1
1
1
0.9996434637
0.9849988617
0.9267353811
1
1
1
1
1
1
1
1
1
1
1
1
1
1
1
1
1
1
1
1
1
1
1
1
1
1
1
1
1
1
1
1
1
1
1
1
1
0.9996146975
0.9845219542
0.9259969504
1
1
1
1
1
1
1
1
1
1
1
1
1
1
1
1
1
1
1
1
1
1
1
1
1
1
1
1
1
1
1
1
1
1
1
1
1
0.9995867221
0.984050798
0.9252798893
1
1
1
1
1
1
1
1
1
1
1
1
1
1
1
1
1
1
1
1
1
1
1
1
1
1
1
1
1
1
1
1
1
1
1
1
1
0.9995534651
0.9835934152
0.9245874164
1
1
1
1
1
1
1
1
1
1
1
1
1
1
1
1
1
1
1
1
1
1
1
1
1
1
1
1
1
1
1
1
1
1
1
1
1
0.9995212746
0.9831466203
0.9239195601
1
1
1
1
1
1
1
1
1
1
1
1
1
1
1
1
1
1
1
1
1
1
1
1
1
1
1
1
1
1
1
1
1
1
1
1
1
0.9994908025
0.9827102794
0.9232751427
1
1
1
1
1
1
1
1
1
1
1
1
1
1
1
1
1
1
1
1
1
1
1
1
1
1
1
1
1
1
1
1
1
1
1
1
1
0.9994625098
0.9822846314
0.9226527944
1
1
1
1
1
1
1
1
1
1
1
1
1
1
1
1
1
1
1
1
1
1
1
1
1
1
1
1
1
1
1
1
1
1
1
1
1
0.9994362374
0.9818687124
0.9220508995
1
1
1
1
1
1
1
1
1
1
1
1
1
1
1
1
1
1
1
1
1
1
1
1
1
1
1
1
1
1
1
1
1
1
1
1
1
0.999414373
0.9814637943
0.9214670864
1
1
1
1
1
1
1
1
1
1
1
1
1
1
1
1
1
1
1
1
1
1
1
1
1
1
1
1
1
1
1
1
1
1
1
1
1
0.9993922665
0.9810711981
0.9208993374
1
1
1
1
1
1
1
1
1
1
1
1
1
1
1
1
1
1
1
1
1
1
1
1
1
1
1
1
1
1
1
1
1
1
1
1
1
0.9993765848
0.9806877993
0.9203448442
1
1
1
1
1
1
1
1
1
1
1
1
1
1
1
1
1
1
1
1
1
1
1
1
1
1
1
1
1
1
1
1
1
1
1
1
1
0.9993657737
0.9803173447
0.9198010316
1
1
1
1
1
1
1
1
1
1
1
1
1
1
1
1
1
1
1
1
1
1
1
1
1
1
1
1
1
1
1
1
1
1
1
1
1
0.9993517778
0.9799584892
0.919268954
1
1
1
1
1
1
1
1
1
1
1
1
1
1
1
1
1
1
1
1
1
1
1
1
1
1
1
1
1
1
1
1
1
1
1
1
1
0.999344352
0.9796160054
0.9187497216
1
1
1
1
1
1
1
1
1
1
1
0.9999999999
0.9999999997
0.9999999996
0.9999999997
0.9999999999
0.9999999999
0.9999999998
0.9999999991
0.9999999973
0.9999999937
0.9999999911
0.9999999922
0.9999999954
0.9999999982
0.9999999996
1
1
1
1
1
1
1
1
1
1
1
0.9993384057
0.9792798869
0.9182439839
1
1
1
1
1
1
0.9999999999
0.9999999998
0.9999999992
0.9999999967
0.999999988
0.9999999687
0.9999999446
0.9999999385
0.9999999572
0.9999999755
0.999999969
0.99999992
0.99999979
0.9999995551
0.9999993041
0.9999993334
0.9999995584
0.9999998072
0.9999999447
0.9999999907
0.999999999
0.9999999984
0.9999999855
0.9999999406
0.9999999212
0.9999999544
0.9999999837
0.9999999961
0.9999999995
1
1
0.9993299378
0.9789460302
0.917750347
0.9999999999
0.9999999999
0.9999999996
0.9999999983
0.9999999938
0.9999999855
0.99999997
0.9999999283
0.9999998053
0.9999994855
0.9999988668
0.9999980897
0.9999976375
0.9999978558
0.9999984662
0.9999986407
0.9999977473
0.999995222
0.999991299
0.9999872075
0.9999867045
0.9999906537
0.9999953885
0.9999983919
0.9999995983
0.9999999207
0.9999998691
0.9999989917
0.9999951918
0.9999879634
0.9999842015
0.9999904239
0.9999960042
0.9999989244
0.9999998621
0.999999995
1
0.9993216997
0.9786053203
0.9172663859
0.9999999244
0.9999999401
0.9999998381
0.9999995342
0.9999989083
0.9999981755
0.9999971288
0.9999949264
0.9999904378
0.9999829915
0.9999743593
0.999968612
0.9999691497
0.9999738683
0.9999781376
0.9999732065
0.9999556237
0.9999294868
0.9999066134
0.999902722
0.9999274099
0.9999604793
0.9999836025
0.9999944133
0.9999980214
0.9999964331
0.9999827091
0.9999350895
0.9998449964
0.9997490132
0.9997129447
0.9997931695
0.9998981439
0.9999703736
0.9999956642
0.9999997831
1
0.9993102948
0.9782414129
0.91678048
0.9999926424
0.9999938205
0.9999875372
0.9999750614
0.9999589865
0.9999468365
0.9999320736
0.9999052668
0.9998649044
0.9998209574
0.9997924927
0.9997917736
0.9998144966
0.9998368682
0.9998331495
0.9997743549
0.9996854177
0.999614482
0.9996033578
0.9996899318
0.9998146464
0.9999082807
0.9999582897
0.999974158
0.9999559681
0.9998712065
0.9996800967
0.9993856653
0.9990993027
0.9989313839
0.9989106067
0.999087714
0.9994677991
0.999807622
0.999963877
0.9999972093
1
0.9992863337
0.9778212384
0.9162750178
0.9998150723
0.9998365275
0.9997416269
0.9996127308
0.9995136059
0.9994724162
0.9994179788
0.9993163763
0.9992026545
0.9991330425
0.9991380139
0.9992096818
0.9992875108
0.9993211345
0.9992195022
0.9990349729
0.9988944498
0.9988681888
0.9990544591
0.9993692504
0.9996282959
0.9997721054
0.9998158991
0.9997454797
0.9994921682
0.9991098524
0.9986929319
0.9983498171
0.9981685752
0.9981428147
0.9982221683
0.9984075233
0.9987792653
0.9994623765
0.9998619775
0.999984207
0.999999389
0.9992453332
0.9772910964
0.9156920177
0.9982744924
0.9984153419
0.9979473115
0.9975251843
0.9974346749
0.9975298
0.9975472748
0.9974716636
0.9974309677
0.9974966861
0.9976792565
0.9978819444
0.9979845931
0.9979526015
0.9976923046
0.9974892379
0.9974369873
0.9976943253
0.9982761589
0.9988087494
0.9991181844
0.9992188746
0.9991373065
0.9987208109
0.9982557009
0.9978739285
0.9976824209
0.997660194
0.997742828
0.9978990612
0.9980637963
0.9982511589
0.9985193217
0.9990450494
0.9996946832
0.9999534021
0.9999975792
0.999175218
0.9765356058
0.9149216158
0.9922371434
0.9927139668
0.9919006756
0.9915779203
0.9922851383
0.9930921178
0.9935998804
0.9939341247
0.9942688146
0.9946779716
0.9950922185
0.9953732341
0.9954654676
0.9952915095
0.99507397
0.9950072476
0.9952290993
0.9960069369
0.9969058479
0.9975095585
0.9977692556
0.9978075729
0.997444012
0.9970046023
0.9967817769
0.9967486507
0.9969734729
0.9973786633
0.9976907765
0.9979165741
0.9981276712
0.9983805475
0.9986932676
0.9990627976
0.9995170236
0.9998934474
0.9999933923
0.9990284361
0.9748641274
0.9140223992
0.9784110698
0.9796384984
0.9794855438
0.9806240772
0.983426465
0.98575018
0.9873801556
0.988576917
0.989553447
0.9903643516
0.9909476575
0.9912546573
0.9913378927
0.9912279076
0.9912137367
0.9913800997
0.9920842999
0.9932411467
0.9942604419
0.9948714157
0.9951039365
0.9951137711
0.9947991498
0.9947007935
0.9947721719
0.9951966825
0.9958463171
0.996497917
0.9970688077
0.9975579227
0.9980027444
0.9984226995
0.9988113753
0.9991710019
0.9995193465
0.9998307579
0.9999817888
0.9987344155
0.9714356754
0.9129618751
0.9552905898
0.9579892957
0.9600124785
0.9643530641
0.97024279
0.974933113
0.9783600927
0.9808363704
0.9826334382
0.9838858018
0.984676805
0.9851182746
0.9853463883
0.98549836
0.9857645961
0.986287491
0.9873324724
0.9886101697
0.9896289723
0.9902420294
0.9904773732
0.9904208572
0.9900380883
0.9899287854
0.9899393111
0.9902604112
0.9909633956
0.9918222383
0.9926855321
0.9934776079
0.994283205
0.9952763821
0.9965345848
0.9977542672
0.9988698698
0.9996311499
0.9999432849
0.9973512949
0.9655999391
0.9115162351
0.9225278993
0.9274206636
0.9328484528
0.9410002284
0.9504243886
0.9582405168
0.9641783953
0.9684540724
0.9714476462
0.9734986241
0.974887416
0.9758428995
0.9765424088
0.9771237114
0.9777161603
0.9785072579
0.9796611468
0.9808952874
0.981815446
0.9822737569
0.9823259665
0.9811889798
0.9795248593
0.9778982623
0.976363671
0.9752167093
0.9745193047
0.9740145252
0.9732240056
0.9718746061
0.9705521926
0.9699956119
0.9748909187
0.9827415293
0.9899268307
0.9949922375
0.9976775425
0.9921275376
0.9569993572
0.9093019939
0.8791323147
0.8863158872
0.8948400286
0.9054876069
0.9175090858
0.9284024913
0.9373138348
0.9441181802
0.9492084537
0.9530964461
0.9561653451
0.9585954103
0.9604407715
0.9617673565
0.9627473061
0.963650829
0.9647013844
0.9657829267
0.9665482691
0.9668376751
0.9658266516
0.9620119148
0.9572463533
0.9515142899
0.9450447002
0.9381871257
0.9308064458
0.9221758285
0.9111852851
0.8972100107
0.8822194668
0.871659486
0.8691403812
0.9092183003
0.9484032784
0.9728973014
0.9810435268
0.981412821
0.9458492186
0.9056137492
0.8217067556
0.8298344153
0.8386117747
0.8469430925
0.8565861674
0.8667003789
0.8762846253
0.8848333417
0.8923368666
0.899079915
0.9052491409
0.9107168777
0.9151355428
0.9182507637
0.9201423117
0.9212334256
0.9220202711
0.9228277835
0.9236765653
0.9241560006
0.9225811936
0.916995083
0.9090360537
0.8982614882
0.8848403127
0.8685243268
0.8483930574
0.8222207334
0.7865743639
0.738613519
0.6821285942
0.6342293022
0.6139248457
0.6720546534
0.8039257798
0.9111330474
0.9560791674
0.9634994301
0.9332113519
0.8989145194
0.7414737986
0.7466029296
0.7491661112
0.7451898585
0.7398720675
0.7362146646
0.7347291283
0.7354402793
0.7375658441
0.7406251315
0.7443225836
0.7485551198
0.7530709504
0.7572791575
0.7604342751
0.7622990064
0.7631485805
0.7633435425
0.7638949192
0.7655373456
0.7679408156
0.769129763
0.7653036592
0.7581693386
0.7482182743
0.7345481511
0.7157988617
0.6869658219
0.640762147
0.5698983791
0.4774444666
0.3879264322
0.3333564261
0.3248172393
0.4775326129
0.7118510297
0.8868694228
0.9374980987
0.9182853537
0.885411569
0.6127523254
0.6052676826
0.5908746763
0.5669606347
0.5394337442
0.5119936683
0.4863477198
0.4636642267
0.4444993413
0.4281664757
0.4143042447
0.4032103945
0.395175954
0.3899244172
0.3866587322
0.384347401
0.381812549
0.3784544083
0.3752230662
0.3735972621
0.3736090259
0.3772182014
0.3839206318
0.3929250173
0.4060195241
0.4227736401
0.4425094558
0.4579719359
0.462252977
0.4272353025
0.3684027181
0.2915365006
0.2074197351
0.1618951105
0.1626554516
0.3427486736
0.6510789476
0.8668140336
0.8972467711
0.8548520704
0.3394740148
0.3124099142
0.2867227627
0.2721805297
0.2641985082
0.2553451198
0.2433980247
0.2284637348
0.2113736752
0.1931804898
0.1755887302
0.1600173392
0.1473770624
0.1377730302
0.1307511877
0.1259002937
0.1226403295
0.1198220926
0.115820516
0.1096246396
0.1018874847
0.09368956314
0.08604403008
0.08097108527
0.07951114005
0.09053125087
0.1122946662
0.1441387556
0.1824062681
0.2124690491
0.2222616487
0.2007484677
0.1621634523
0.1248235688
0.07424700962
0.0740195445
0.2457703904
0.5890216713
0.8053506006
0.779111947
0.02885566753
0.0314487601
0.03398252118
0.03838857437
0.04528141482
0.05462170888
0.06406100064
0.07161965756
0.07553416675
0.07571419129
0.0736169721
0.06920056399
0.06376806919
0.05835327669
0.05351855946
0.04934110718
0.04546736098
0.04128564647
0.03625917943
0.03051925917
0.02481027754
0.01916656503
0.01325940815
0.008205678271
0.005318429936
0.004374167952
0.005911295656
0.009661771393
0.01672551724
0.02881504042
0.0454660062
0.06079312568
0.06785354703
0.05920074781
0.04572521985
0.02243920526
0.02209950969
0.1146212978
0.3067876105
0.4315136895
0.0006476481987
0.0006736238347
0.0009689987386
0.001511184671
0.002311744732
0.003488096435
0.005135792657
0.00730303553
0.01017792893
0.01358245358
0.0170173616
0.01997779172
0.0220183278
0.02297059935
0.02316558206
0.02321761346
0.02332540674
0.02298334824
0.0208430924
0.01562031075
0.009136903254
0.004806404838
0.002219849914
0.0006806449339
0.0001556961083
2.940342102e-05
1.886282169e-07
1.167181534e-07
6.421297505e-07
8.547990281e-06
9.251283099e-05
0.0004890620017
0.001481447115
0.003612030227
0.006946756659
0.005769103328
0.002202561371
0.0001915790548
4.068008741e-07
4.090245985e-07
0.0005139540244
0.0003229059456
0.0002324016752
0.0002014889145
0.0002100887342
0.0002547065378
0.0003572597485
0.000544891993
0.0008458811416
0.001287710957
0.001907153055
0.002732643192
0.0038233486
0.005114130534
0.006518281696
0.008221549205
0.01056946751
0.01280709513
0.01286599823
0.01031966305
0.004917109691
0.001408060082
0.0003611548156
5.016404459e-05
2.285754527e-06
3.406449234e-09
1.743050149e-14
0
0
1.526667681e-12
1.507923342e-09
1.301713426e-08
2.142860556e-08
6.63926969e-09
5.232747569e-10
6.802693964e-10
1.378183234e-09
4.673910148e-09
4.039166396e-07
4.10461504e-07
0.000469802026
0.0002492405901
0.0001530651161
0.0001152658849
0.0001045992054
0.0001094573453
0.0001326043892
0.0001802976523
0.0002570094879
0.0003716291498
0.0005387274761
0.000780467196
0.001124836062
0.001610199611
0.002308605338
0.003372032575
0.005026184927
0.007036439679
0.007659092383
0.006097956751
0.002255512233
0.0003184289026
4.24064581e-05
1.708578993e-06
3.113037605e-09
3.778088953e-13
0
0
0
0
0
0
0
0
0
0
0
0
0
0
0.0004405135247
0.0002146229178
0.0001128708413
7.449651629e-05
5.718929004e-05
5.401832005e-05
6.385105131e-05
8.73854475e-05
0.0001239971044
0.0001782967212
0.0002578811537
0.0003774227164
0.0005567979631
0.0008220005056
0.001217832685
0.001824088904
0.002715239966
0.003628702512
0.003701731571
0.002345219341
0.0005008479098
3.314096688e-05
1.571595322e-06
6.809170339e-09
1.522004744e-12
5.551115123e-16
0
0
0
0
0
0
0
0
0
0
0
0
0
0
0.0004168615549
0.0001902015477
8.703768273e-05
4.551862463e-05
2.523401259e-05
1.865974072e-05
2.023771384e-05
2.891960743e-05
4.229702944e-05
6.205689933e-05
9.332308828e-05
0.0001442866895
0.0002246956319
0.0003428662055
0.0005086209545
0.0007285645238
0.0009685497286
0.00112487849
0.000931882739
0.0003921544473
4.028306448e-05
7.585742876e-07
6.393379492e-09
2.916999975e-12
0
0
0
0
0
0
0
0
0
0
0
0
0
0
0
0
0.0003989567063
0.0001737203266
6.858599988e-05
2.657512064e-05
8.62996254e-06
3.496609823e-06
3.05211382e-06
4.542075426e-06
7.283095983e-06
1.175197987e-05
1.888236488e-05
2.955823876e-05
4.454329903e-05
6.539271649e-05
9.203564675e-05
0.0001216873527
0.000142832368
0.0001421909074
8.516692353e-05
2.075567797e-05
6.712613281e-07
2.010519751e-09
2.105204899e-12
5.551115123e-16
0
0
0
0
0
0
0
0
0
0
0
0
0
0
0
0
0.0003834059092
0.0001619321368
5.533884312e-05
1.609594382e-05
2.815864149e-06
2.784810628e-07
1.254083405e-07
1.646568607e-07
3.076757682e-07
5.841070241e-07
1.107577794e-06
1.969908546e-06
3.168163554e-06
4.578990347e-06
5.936445516e-06
6.80751978e-06
6.982912348e-06
4.996821353e-06
1.946935461e-06
1.896992612e-07
1.462603483e-09
7.218670106e-13
0
0
0
0
0
0
0
0
0
0
0
0
0
0
0
0
0
0
0.0003686925909
0.0001537593548
4.655697228e-05
1.089057988e-05
1.313260062e-06
2.432136259e-08
8.977680821e-10
4.280270582e-10
4.147928667e-10
5.711304762e-10
1.071629452e-09
2.400549537e-09
5.308420259e-09
1.062289201e-08
1.885523659e-08
2.758296269e-08
3.015344607e-08
1.645547243e-08
4.016121213e-09
1.583982945e-10
3.704814233e-13
0
0
0
0
0
0
0
0
0
0
0
0
0
0
0
0
0
0
0
0.0003540030272
0.000148441724
4.108593104e-05
8.382187736e-06
8.847383345e-07
5.581593965e-09
2.32434072e-11
6.571410083e-13
7.771561172e-14
3.019806627e-14
2.386979503e-14
5.651035195e-14
2.118305531e-13
8.774092564e-13
3.083977518e-12
6.55775434e-12
7.762235299e-12
3.702704809e-12
5.787592627e-13
9.547918012e-15
0
0
0
0
0
0
0
0
0
0
0
0
0
0
0
0
0
0
0
0
0.0003385675035
0.0001451650562
3.773042046e-05
7.132415795e-06
7.01662911e-07
1.592038612e-09
3.651301483e-12
2.509104036e-14
3.330669074e-16
2.220446049e-16
0
0
0
8.881784197e-16
5.551115123e-16
2.220446049e-16
7.771561172e-16
5.551115123e-16
0
0
0
0
0
0
0
0
0
0
0
0
0
0
0
0
0
0
0
0
0
0
0.0003218950393
0.0001435748497
3.595782411e-05
6.557181334e-06
5.554848397e-07
3.983099406e-10
6.57029986e-13
2.775557562e-15
0
0
0
0
0
0
0
0
0
0
0
0
0
0
0
0
0
0
0
0
0
0
0
0
0
0
0
0
0
0
0
0
0.0003034158067
0.000143514623
3.569507907e-05
6.398291355e-06
3.584813223e-07
7.812350766e-11
9.547918012e-14
2.220446049e-16
0
0
0
0
0
0
0
0
0
0
0
0
0
0
0
0
0
0
0
0
0
0
0
0
0
0
0
0
0
0
0
0
0.0002820829547
0.0001471078521
3.679907847e-05
6.516595403e-06
1.477287681e-07
1.118294346e-11
1.065814104e-14
0
0
0
0
0
0
0
0
0
0
0
0
0
0
0
0
0
0
0
0
0
0
0
0
0
0
0
0
0
0
0
0
0
0.000256141539
0.0001542554187
3.927276643e-05
7.005055966e-06
3.371198876e-08
1.28264066e-12
5.551115123e-16
0
0
0
0
0
0
0
0
0
0
0
0
0
0
0
0
0
0
0
0
0
0
0
0
0
0
0
0
0
0
0
0
0
0.0002235468898
0.0001623497276
4.30041616e-05
7.821529218e-06
3.904011447e-09
3.144151606e-13
0
0
0
0
0
0
0
0
0
0
0
0
0
0
0
0
0
0
0
0
0
0
0
0
0
0
0
0
0
0
0
0
0
0
0.0001847315539
0.0001670091483
4.730335557e-05
8.460737857e-06
3.957068007e-10
2.619016115e-13
0
0
0
0
0
0
0
0
0
0
0
0
0
0
0
0
0
0
0
0
0
0
0
0
0
0
0
0
0
0
0
0
0
0
0.0001457906198
0.0001621964355
5.0295653e-05
6.982723451e-06
2.414125566e-10
3.129718706e-13
0
0
0
0
0
0
0
0
0
0
0
0
0
0
0
0
0
0
0
0
0
0
0
0
0
0
0
0
0
0
0
0
0
0
0.0001103586807
0.0001419364082
5.060602164e-05
2.775958497e-06
2.966346058e-10
3.723688025e-13
8.881784197e-16
0
0
0
0
0
0
0
0
0
0
0
0
0
0
0
0
0
0
0
0
0
0
0
0
0
0
0
0
0
0
0
0
0
7.313401124e-05
0.0001094079257
4.668888139e-05
4.189390053e-07
3.58074348e-10
3.761435607e-13
7.771561172e-16
0
0
0
0
0
0
0
0
0
0
0
0
0
0
0
0
0
0
0
0
0
0
0
0
0
0
0
0
0
0
0
0
0
2.891043776e-05
6.679797937e-05
3.058182519e-05
1.285409372e-07
1.350245471e-10
1.371125435e-13
0
0
0
0
0
0
0
0
0
0
0
0
0
0
0
0
0
0
0
0
0
0
0
0
0
0
0
0
0
0
0
0
0
0
3.890190124e-06
2.219168927e-05
8.631238137e-06
3.269499327e-08
2.670141885e-11
2.287059431e-14
0
0
0
0
0
0
0
0
0
0
0
0
0
0
0
0
0
0
0
0
0
0
0
0
0
0
0
0
0
0
0
0
0
0
5.638080658e-08
1.935817097e-06
3.858761484e-07
1.426638252e-09
1.286193374e-12
3.330669074e-16
0
0
0
0
0
0
0
0
0
0
0
0
0
0
0
0
0
0
0
0
0
0
0
0
0
0
0
0
0
0
0
0
0
0
4.847500179e-11
1.322105381e-08
1.363586133e-09
5.904166045e-12
6.77236045e-15
0
0
0
0
0
0
0
0
0
0
0
0
0
0
0
0
0
0
0
0
0
0
0
0
0
0
0
0
0
0
0
0
0
0
0
8.881784197e-16
5.337286169e-12
3.067546217e-13
1.554312234e-15
0
0
0
0
0
0
0
0
0
0
0
0
0
0
0
0
0
0
0
0
0
0
0
0
0
0
0
0
0
0
0
0
0
0
0
0
0
7.771561172e-16
0
0
0
0
0
0
0
0
0
0
0
0
0
0
0
0
0
0
0
0
0
0
0
0
0
0
0
0
0
0
0
0
0
0
0
0
0
0
0
0
0
0
0
0
0
0
0
0
0
0
0
0
0
0
0
0
0
0
0
0
0
0
0
0
0
0
0
0
0
0
0
0
0
0
0
0
0
0
0
0
0
0
0
0
0
0
0
0
0
0
0
0
0
0
0
0
0
0
0
0
0
0
0
0
0
0
0
0
0
0
0
0
0
0
0
0
0
0
0
0
0
0
0
0
0
0
0
0
0
0
0
0
0
0
0
0
0
0
0
0
0
0
0
0
0
0
0
0
0
0
0
0
0
0
0
0
0
0
0
0
0
0
0
0
0
0
0
0
0
0
0
0
0
0
0
0
0
0
0
0
0
0
0
0
0
0
0
0
0
0
0
0
0
0
0
0
0
0
0
0
0
0
0
0
0
0
0
0
0
0
0
0
0
0
0
0
0
0
0
0
0
0
0
0
0
0
0
0
0
0
0
0
0
0
0
0
0
0
0
0
0
0
0
0
0
0
0
0
0
0
0
0
0
0
0
0
0
0
0
0
0
0
0
0
0
0
0
0
0
0
0
0
0
0
0
0
0
0
0
0
0
0
0
0
0
0
0
0
0
0
0
0
0
0
0
0
0
0
0
0
0
0
0
0
0
0
0
0
0
0
0
0
0
0
0
0
0
0
0
0
0
0
0
0
0
0
0
0
0
0
0
0
0
0
0
0
0
0
0
0
0
0
0
0
0
0
0
0
0
0
0
0
0
0
0
0
0
0
0
0
0
0
0
0
0
0
0
0
0
0
0
0
0
0
0
0
0
0
0
0
0
0
0
0
0
0
0
0
0
0
0
0
0
0
0
0
0
0
0
0
0
0
0
0
0
0
0
0
0
0
0
0
0
0
0
0
0
0
0
0
0
0
0
0
0
0
0
0
0
0
0
0
0
0
0
0
0
0
0
0
0
0
0
0
0
0
0
0
0
0
0
0
0
0
0
0
0
0
0
0
0
0
0
0
0
0
0
0
0
0
0
0
0
0
0
0
0
0
0
0
0
0
0
0
0
0
0
0
0
0
0
0
0
0
0
0
0
0
0
0
0
0
0
0
0
0
0
0
0
0
0
0
0
0
0
0
0
0
0
0
0
0
0
0
0
0
0
0
0
0
0
0
0
0
0
0
0
0
0
0
0
0
0
0
0
0
0
0
0
0
0
0
0
0
0
0
0
0
0
0
0
0
0
0
0
0
0
0
0
0
0
0
0
0
0
0
0
0
0
0
0
0
0
0
0
0
0
0
0
0
0
0
0
0
0
0
0
0
0
0
0
0
0
0
0
0
0
0
0
0
0
0
0
0
0
0
0
0
0
0
0
0
0
0
0
0
0
0
0
0
0
0
0
0
0
0
0
0
0
0
0
0
0
0
0
0
0
0
0
0
0
0
0
0
0
0
0
0
0
0
0
0
0
0
0
0
0
0
0
0
0
0
0
0
0
0
0
0
0
0
0
0
0
0
0
0
0
0
0
0
0
0
0
0
0
0
0
0
0
0
0
0
0
0
0
0
0
0
0
0
0
0
0
0
0
0
0
0
0
0
0
0
0
0
0
0
0
0
0
0
0
0
0
0
0
0
0
0
0
0
0
0
0
0
0
0
0
0
0
0
0
0
0
0
0
0
0
0
0
0
0
0
0
0
0
0
0
0
0
0
0
0
0
0
0
0
0
0
0
0
0
0
0
0
0
0
0
0
0
0
0
0
0
0
0
0
0
0
0
0
0
0
0
0
0
0
0
0
0
0
0
0
0
0
0
0
0
0
0
0
0
0
0
0
0
0
0
0
0
0
0
0
0
0
0
0
0
0
0
0
0
0
0
0
0
0
0
0
0
0
0
0
0
0
0
0
0
0
0
0
0
0
0
0
0
0
0
0
0
0
0
0
0
0
0
0
0
0
0
0
0
0
0
0
0
0
0
0
0
0
0
0
0
0
0
0
0
0
0
0
0
0
0
0
0
0
0
0
0
0
0
0
0
0
0
0
0
0
0
0
0
0
0
0
0
0
0
0
0
0
0
0
0
0
0
0
0
0
0
0
0
0
0
0
0
0
0
0
0
0
0
0
0
0
0
0
0
0
0
0
0
0
0
0
0
0
0
0
0
0
0
0
0
0
0
0
0
0
0
0
0
0
0
0
0
0
0
0
0
0
0
0
0
0
0
0
0
0
0
0
0
0
0
0
0
0
0
0
0
0
0
0
0
0
0
0
0
0
0
0
0
0
0
0
0
0
0
0
0
0
0
0
0
0
0
0
0
0
0
0
0
0
0
0
0
0
0
0
0
0
0
0
0
0
0
0
0
0
0
0
0
0
0
0
0
0
0
0
0
0
0
0
0
0
0
0
0
0
0
0
0
0
0
0
0
0
0
0
0
0
0
0
0
0
0
0
0
0
0
0
0
0
0
0
0
0
0
0
0
0
0
0
0
0
0
0
0
0
0
0
0
0
0
0
0
0
0
0
0
0
0
0
0
0
0
0
0
0
0
0
0
0
0
0
0
0
0
0
0
0
0
0
0
0
0
0
0
0
0
0
0
0
0
0
0
0
0
0
0
0
0
0
0
0
0
0
0
0
0
0
0
0
0
0
0
0
0
0
0
0
0
0
0
0
0
0
0
0
0
0
0
0
0
0
0
0
0
0
0
0
0
0
0
0
0
0
0
0
0
0
0
0
0
0
0
0
0
0
0
0
0
0
0
0
0
0
0
0
0
0
0
0
0
0
0
0
0
0
0
0
0
0
0
0
0
0
0
0
0
0
0
0
0
0
0
0
0
0
0
0
0
0
0
0
0
0
0
0
0
0
0
0
0
0
0
0
0
0
0
0
0
0
0
0
0
0
0
0
0
0
0
0
0
0
0
0
0
0
0
0
0
0
0
0
0
0
0
0
0
0
0
0
0
0
0
0
0
0
0
0
0
0
0
0
0
0
0
0
0
0
0
0
0
0
0
0
0
0
0
0
0
0
0
0
0
0
0
0
)
;

boundaryField
{
    front
    {
        type            wedge;
    }
    back
    {
        type            wedge;
    }
    tankWall
    {
        type            zeroGradient;
    }
    bottom
    {
        type            zeroGradient;
    }
    top
    {
        type            zeroGradient;
    }
    axis
    {
        type            empty;
    }
}


// ************************************************************************* //
