/*--------------------------------*- C++ -*----------------------------------*\
| =========                 |                                                 |
| \\      /  F ield         | OpenFOAM: The Open Source CFD Toolbox           |
|  \\    /   O peration     | Version:  v1912                                 |
|   \\  /    A nd           | Website:  www.openfoam.com                      |
|    \\/     M anipulation  |                                                 |
\*---------------------------------------------------------------------------*/
FoamFile
{
    version     2.0;
    format      ascii;
    class       volScalarField;
    location    "0.9";
    object      alphat.gas;
}
// * * * * * * * * * * * * * * * * * * * * * * * * * * * * * * * * * * * * * //

dimensions      [1 -1 -1 0 0 0 0];


internalField   nonuniform List<scalar> 
4800
(
2.660874617e-08
5.447499863e-08
7.586018195e-08
9.429980578e-08
1.111953359e-07
1.272856178e-07
1.430520862e-07
1.588455654e-07
1.74938757e-07
1.915516962e-07
2.088653306e-07
2.270293587e-07
2.461670969e-07
2.66378805e-07
2.87744274e-07
3.103251534e-07
3.34167318e-07
3.593034656e-07
3.857560679e-07
4.135407515e-07
4.426701494e-07
4.731582485e-07
5.050252444e-07
5.383029165e-07
5.730405724e-07
6.093116634e-07
6.472211814e-07
6.869139019e-07
7.285850644e-07
7.724885715e-07
8.189668007e-07
8.684473481e-07
9.212460531e-07
9.801235949e-07
1.035349156e-06
1.128702002e-06
1.145624716e-06
1.362363276e-06
9.930425288e-07
1.984723634e-06
4.153094061e-08
8.523671308e-08
1.187775635e-07
1.473077898e-07
1.726942816e-07
1.958352808e-07
2.172565763e-07
2.373004342e-07
2.562055485e-07
2.741469625e-07
2.912581709e-07
3.076443205e-07
3.233905586e-07
3.385675686e-07
3.532353817e-07
3.674460859e-07
3.812458012e-07
3.946761498e-07
4.077753696e-07
4.205791698e-07
4.331214e-07
4.454345829e-07
4.575503509e-07
4.694998197e-07
4.813139244e-07
4.930237254e-07
5.046607655e-07
5.162570268e-07
5.278477687e-07
5.394541782e-07
5.511869618e-07
5.627074515e-07
5.756570441e-07
5.840006043e-07
6.076314984e-07
5.871935396e-07
6.766151036e-07
5.320991511e-07
6.514940335e-07
2.836095107e-06
4.03603629e-08
8.277753758e-08
1.153314956e-07
1.4303154e-07
1.67694432e-07
1.90193934e-07
2.110411347e-07
2.305684357e-07
2.490072219e-07
2.665266559e-07
2.832551008e-07
2.992928692e-07
3.147202586e-07
3.296028507e-07
3.439951397e-07
3.579430924e-07
3.714860016e-07
3.846578576e-07
3.974883806e-07
4.100038118e-07
4.222275262e-07
4.341805164e-07
4.458817785e-07
4.573486277e-07
4.685969625e-07
4.796414981e-07
4.904960041e-07
5.011733747e-07
5.116870404e-07
5.220427698e-07
5.322953645e-07
5.422128087e-07
5.5308609e-07
5.589791187e-07
5.843536121e-07
5.396240832e-07
6.909695704e-07
2.760775614e-07
9.851669189e-07
3.233190927e-06
4.045756352e-08
8.299728639e-08
1.156496737e-07
1.434330061e-07
1.681684435e-07
1.907319374e-07
2.116359426e-07
2.312137981e-07
2.496975847e-07
2.67257005e-07
2.840208632e-07
3.000898486e-07
3.155445931e-07
3.30450986e-07
3.448638114e-07
3.588293151e-07
3.723870619e-07
3.855713087e-07
3.984120386e-07
4.109357507e-07
4.231660746e-07
4.351242529e-07
4.4682953e-07
4.58299471e-07
4.695502328e-07
4.805968129e-07
4.91453287e-07
5.021330551e-07
5.12649108e-07
5.230142927e-07
5.332451133e-07
5.433180221e-07
5.53585515e-07
5.617145447e-07
5.808524522e-07
5.52145849e-07
6.60832558e-07
5.553813338e-07
1.443276062e-06
3.531515449e-06
4.043925284e-08
8.295567884e-08
1.155911392e-07
1.433602395e-07
1.680835163e-07
1.906364914e-07
2.115313342e-07
2.311011813e-07
2.495779667e-07
2.671312713e-07
2.838897939e-07
2.999541283e-07
3.15404816e-07
3.303076577e-07
3.447173492e-07
3.586800464e-07
3.722352218e-07
3.854170374e-07
3.982553772e-07
4.107766371e-07
4.230043374e-07
4.349596039e-07
4.466615535e-07
4.581276086e-07
4.693737598e-07
4.804148034e-07
4.912645554e-07
5.019361427e-07
5.124417157e-07
5.22795751e-07
5.330015341e-07
5.430915651e-07
5.531701753e-07
5.619220392e-07
5.7816426e-07
5.601914752e-07
6.591660943e-07
2.049701821e-07
1.569773385e-06
3.810184981e-06
4.043177333e-08
8.294048063e-08
1.15572216e-07
1.433383882e-07
1.680593938e-07
1.906105778e-07
2.115039829e-07
2.310726589e-07
2.495484745e-07
2.67100955e-07
2.838587483e-07
2.999223991e-07
3.153723997e-07
3.302745007e-07
3.446833461e-07
3.586450381e-07
3.72198994e-07
3.853793185e-07
3.982158365e-07
4.107348827e-07
4.229599133e-07
4.349119866e-07
4.466101459e-07
4.580717314e-07
4.693126373e-07
4.803475374e-07
4.911900898e-07
5.018532277e-07
5.123486732e-07
5.226915992e-07
5.328764034e-07
5.429859941e-07
5.528431597e-07
5.62468888e-07
5.751322743e-07
5.699412135e-07
6.272547243e-07
3.709168431e-07
1.552213872e-06
4.074700483e-06
4.04230928e-08
8.292208962e-08
1.155488126e-07
1.433109952e-07
1.68028871e-07
1.905775758e-07
2.114690005e-07
2.310360888e-07
2.495106274e-07
2.670620713e-07
2.838190031e-07
2.998819047e-07
3.153312048e-07
3.302325894e-07
3.446406354e-07
3.586013757e-07
3.721541562e-07
3.853330073e-07
3.981676783e-07
4.106844257e-07
4.229066253e-07
4.348552517e-07
4.465492598e-07
4.580058941e-07
4.692409436e-07
4.80268955e-07
4.911034316e-07
5.01757107e-07
5.122413666e-07
5.225724897e-07
5.32729637e-07
5.429054652e-07
5.522700253e-07
5.638803906e-07
5.700320037e-07
5.794296963e-07
6.097089445e-07
5.728426381e-07
1.669801188e-06
4.297842365e-06
4.041441714e-08
8.290371086e-08
1.155258643e-07
1.432844942e-07
1.679996941e-07
1.905463847e-07
2.114362975e-07
2.310022657e-07
2.494759889e-07
2.670268465e-07
2.83783351e-07
2.998459146e-07
3.152948962e-07
3.301959094e-07
3.446034563e-07
3.585634922e-07
3.721152826e-07
3.85292776e-07
3.981256373e-07
4.106400379e-07
4.228592671e-07
4.348042116e-07
4.464937362e-07
4.579449919e-07
4.691736704e-07
4.801942121e-07
4.910199834e-07
5.016636364e-07
5.121357486e-07
5.224574369e-07
5.325706149e-07
5.429077219e-07
5.512583851e-07
5.67558882e-07
5.541505695e-07
6.271687508e-07
4.819176071e-07
1.029112862e-06
2.763631192e-06
4.5438079e-06
4.040561702e-08
8.288497671e-08
1.155028086e-07
1.432581573e-07
1.679709973e-07
1.905160243e-07
2.114048007e-07
2.309700421e-07
2.494433552e-07
2.66994038e-07
2.837505259e-07
2.998131551e-07
3.152622065e-07
3.301632129e-07
3.445705927e-07
3.585302143e-07
3.720812536e-07
3.852575673e-07
3.980887275e-07
4.106008124e-07
4.228170185e-07
4.347581407e-07
4.464429532e-07
4.578885171e-07
4.691104356e-07
4.801230671e-07
4.90939659e-07
5.015729582e-07
5.120317835e-07
5.223490325e-07
5.323909459e-07
5.430042891e-07
5.500409584e-07
5.709391187e-07
5.431336306e-07
6.529309115e-07
3.522409901e-07
6.235118961e-07
3.23868675e-06
4.798755858e-06
4.039670751e-08
8.286593782e-08
1.154797442e-07
1.4323213e-07
1.67942973e-07
1.904867349e-07
2.113747987e-07
2.309397562e-07
2.494131153e-07
2.669640868e-07
2.83721023e-07
2.99784177e-07
3.152337442e-07
3.301351686e-07
3.445427759e-07
3.585023383e-07
3.720529325e-07
3.852283145e-07
3.980579552e-07
4.105678321e-07
4.227810436e-07
4.347182896e-07
4.463982549e-07
4.578379164e-07
4.690528002e-07
4.800572032e-07
4.908642976e-07
5.014869087e-07
5.119326529e-07
5.2224258e-07
5.322335686e-07
5.429972289e-07
5.494363331e-07
5.715534867e-07
5.427480199e-07
6.536899145e-07
2.714504015e-07
1.151498145e-06
3.705765633e-06
5.056351223e-06
4.038768988e-08
8.284660226e-08
1.154567006e-07
1.432064666e-07
1.679157033e-07
1.904586301e-07
2.113464413e-07
2.309115975e-07
2.493855025e-07
2.669372744e-07
2.836951764e-07
2.997593714e-07
3.152099621e-07
3.30112295e-07
3.445205942e-07
3.58480526e-07
3.720310587e-07
3.852058381e-07
3.98034225e-07
4.105420893e-07
4.227524252e-07
4.346858359e-07
4.463609172e-07
4.577945689e-07
4.690022521e-07
4.79998216e-07
4.907956106e-07
5.014072076e-07
5.118411028e-07
5.221336564e-07
5.321393556e-07
5.427145279e-07
5.498862128e-07
5.699503994e-07
5.435923563e-07
6.446240466e-07
5.572725422e-07
4.491950718e-07
4.104742932e-06
5.315123141e-06
4.03785693e-08
8.282699039e-08
1.154337281e-07
1.431812501e-07
1.678893065e-07
1.904318676e-07
2.113199292e-07
2.308858143e-07
2.493608173e-07
2.669139581e-07
2.836734048e-07
2.997392238e-07
3.15191417e-07
3.300952251e-07
3.445047609e-07
3.584655755e-07
3.720165185e-07
3.851911158e-07
3.980186091e-07
4.105247526e-07
4.227324312e-07
4.346621474e-07
4.463324093e-07
4.577600456e-07
4.689604637e-07
4.79947875e-07
4.907354512e-07
5.013358219e-07
5.117586635e-07
5.220285243e-07
5.320797196e-07
5.423118205e-07
5.509785324e-07
5.652477715e-07
5.573263455e-07
6.318599927e-07
5.790369813e-07
1.152269596e-06
4.497642494e-06
5.572678511e-06
4.036935289e-08
8.280712824e-08
1.154108861e-07
1.431565768e-07
1.678639192e-07
1.904066277e-07
2.112954917e-07
2.308626895e-07
2.493394013e-07
2.668945439e-07
2.836561848e-07
2.997242867e-07
3.15178743e-07
3.300846799e-07
3.444960893e-07
3.584583966e-07
3.720103222e-07
3.851852616e-07
3.980123277e-07
4.105171502e-07
4.227224978e-07
4.346487685e-07
4.463143819e-07
4.577361e-07
4.689292831e-07
4.799081195e-07
4.906858201e-07
5.012749152e-07
5.116865532e-07
5.219354733e-07
5.320171593e-07
5.420111589e-07
5.515803589e-07
5.628430178e-07
5.623949397e-07
6.275443079e-07
7.2516834e-07
1.578277605e-06
4.860510557e-06
5.829362306e-06
4.03600501e-08
8.278704869e-08
1.153882455e-07
1.431325596e-07
1.678396996e-07
1.903831181e-07
2.112733909e-07
2.308425458e-07
2.49321644e-07
2.668794947e-07
2.836440589e-07
2.997151893e-07
3.151726627e-07
3.300814813e-07
3.444955064e-07
3.584600265e-07
3.720136213e-07
3.851895446e-07
3.980167696e-07
4.105207917e-07
4.227242552e-07
4.346474473e-07
4.463086976e-07
4.577246994e-07
4.689107718e-07
4.798810966e-07
4.906489282e-07
5.012267827e-07
5.116267244e-07
5.218579801e-07
5.319518183e-07
5.417918837e-07
5.519756997e-07
5.608641943e-07
5.68191357e-07
6.00816298e-07
5.598815604e-07
1.997951637e-06
5.19758368e-06
6.087681009e-06
4.035067282e-08
8.276679191e-08
1.153658889e-07
1.431093278e-07
1.678168277e-07
1.903615744e-07
2.112539235e-07
2.308257478e-07
2.493079852e-07
2.66869333e-07
2.836376404e-07
2.997126433e-07
3.151739938e-07
3.300865608e-07
3.445040635e-07
3.58471642e-07
3.72027723e-07
3.852054057e-07
3.980335112e-07
4.105373896e-07
4.227395506e-07
4.346601633e-07
4.463174608e-07
4.577280613e-07
4.689072482e-07
4.798692088e-07
4.906272561e-07
5.011938515e-07
5.115823112e-07
5.217944964e-07
5.319086625e-07
5.415505712e-07
5.525826746e-07
5.579405605e-07
5.767306964e-07
5.841671295e-07
6.40215661e-07
8.13891184e-07
5.533386411e-06
6.347750957e-06
4.034123558e-08
8.274640594e-08
1.153439115e-07
1.430870285e-07
1.677955066e-07
1.903422614e-07
2.112374227e-07
2.308127044e-07
2.492989185e-07
2.668646457e-07
2.836376188e-07
2.997174501e-07
3.151836586e-07
3.301009696e-07
3.445229491e-07
3.584945753e-07
3.72054108e-07
3.85234478e-07
3.980643402e-07
4.105688858e-07
4.227704782e-07
4.346891587e-07
4.46343052e-07
4.577486971e-07
4.689213404e-07
4.798751768e-07
4.906235867e-07
5.011790138e-07
5.115557911e-07
5.217504184e-07
5.318751629e-07
5.413695791e-07
5.530279721e-07
5.556552692e-07
5.844448297e-07
5.637765626e-07
3.730997126e-07
1.260564637e-06
5.862362463e-06
6.609388124e-06
4.033175573e-08
8.272594737e-08
1.153224217e-07
1.430658276e-07
1.677759639e-07
1.903254745e-07
2.112242599e-07
2.308038712e-07
2.49294994e-07
2.668660885e-07
2.836447657e-07
2.997305082e-07
3.152026932e-07
3.301258917e-07
3.445535034e-07
3.585303308e-07
3.720944513e-07
3.85278611e-07
3.981112826e-07
4.106174826e-07
4.228194138e-07
4.347369754e-07
4.463881719e-07
4.577894597e-07
4.6895604e-07
4.799021017e-07
4.906411198e-07
5.011853438e-07
5.115516641e-07
5.217207257e-07
5.319004193e-07
5.410412397e-07
5.540908391e-07
5.517147612e-07
5.946070692e-07
5.354864501e-07
4.364283775e-07
1.673036474e-06
6.17971608e-06
6.872615027e-06
4.032225357e-08
8.270548197e-08
1.15301542e-07
1.430459097e-07
1.677584523e-07
1.903115411e-07
2.112148462e-07
2.307997535e-07
2.492968224e-07
2.668743903e-07
2.836599415e-07
2.997528221e-07
3.152322587e-07
3.301626566e-07
3.445972352e-07
3.585806057e-07
3.721506456e-07
3.853398981e-07
3.981766348e-07
4.106856796e-07
4.228890562e-07
4.34806504e-07
4.464558976e-07
4.578535999e-07
4.69014756e-07
4.799535341e-07
4.906835049e-07
5.012166167e-07
5.115732666e-07
5.217115711e-07
5.319769738e-07
5.40607568e-07
5.556527867e-07
5.466574807e-07
6.046105633e-07
5.128773823e-07
5.196225123e-07
2.038203322e-06
6.484429321e-06
7.137740687e-06
4.031275253e-08
8.268508537e-08
1.152814094e-07
1.430274798e-07
1.677432504e-07
1.903008211e-07
2.112096339e-07
2.308009095e-07
2.49305079e-07
2.668903585e-07
2.836841016e-07
2.997855112e-07
3.152736534e-07
3.302127554e-07
3.446558414e-07
3.586473133e-07
3.722248294e-07
3.85420709e-07
3.982630013e-07
4.107763157e-07
4.229824757e-07
4.349010427e-07
4.465497458e-07
4.579448362e-07
4.691013889e-07
4.800335456e-07
4.907549371e-07
5.012773412e-07
5.116234318e-07
5.217379554e-07
5.320444834e-07
5.404090857e-07
5.562843431e-07
5.45554606e-07
6.027804661e-07
5.173554146e-07
6.704442201e-07
2.37452501e-06
6.776986689e-06
7.406200235e-06
4.030327931e-08
8.266484375e-08
1.152621757e-07
1.430107627e-07
1.67730663e-07
1.902937087e-07
2.112091179e-07
2.308079523e-07
2.493205086e-07
2.669148859e-07
2.837183057e-07
2.998298206e-07
3.153283263e-07
3.302778583e-07
3.447312284e-07
3.587326097e-07
3.723194191e-07
3.855237278e-07
3.983733378e-07
4.108926193e-07
4.231031712e-07
4.350243568e-07
4.466737381e-07
4.58067433e-07
4.69220427e-07
4.801468222e-07
4.908602952e-07
5.013724765e-07
5.117077708e-07
5.21801453e-07
5.321329666e-07
5.40280776e-07
5.570738872e-07
5.420940967e-07
6.14699503e-07
4.820128709e-07
6.832740428e-07
2.74827643e-06
7.055054052e-06
7.679412275e-06
4.029386393e-08
8.26448545e-08
1.152440085e-07
1.429960037e-07
1.677210211e-07
1.902906341e-07
2.112138384e-07
2.308215495e-07
2.493439284e-07
2.669489581e-07
2.837637279e-07
2.99887135e-07
3.153978946e-07
3.303598356e-07
3.448255386e-07
3.588389254e-07
3.724371458e-07
3.85651996e-07
3.985110019e-07
4.110382662e-07
4.232551357e-07
4.351807501e-07
4.468324796e-07
4.582262864e-07
4.693770442e-07
4.802987903e-07
4.910052337e-07
5.015078289e-07
5.118326507e-07
5.219064558e-07
5.322514581e-07
5.402792438e-07
5.573400052e-07
5.416510719e-07
6.168051178e-07
4.58284618e-07
8.083860366e-07
9.979642094e-07
7.338133257e-06
7.956140421e-06
4.028453982e-08
8.262522658e-08
1.152270908e-07
1.429834689e-07
1.677146829e-07
1.902920615e-07
2.112243803e-07
2.308424244e-07
2.493762308e-07
2.669936597e-07
2.838216686e-07
2.999589957e-07
3.154841655e-07
3.304607848e-07
3.44941182e-07
3.589690016e-07
3.725810985e-07
3.858089618e-07
3.986798097e-07
4.11217445e-07
4.234429294e-07
4.353751483e-07
4.470312533e-07
4.584270258e-07
4.695772046e-07
4.804957375e-07
4.911963253e-07
5.016902956e-07
5.120048455e-07
5.220613802e-07
5.324082999e-07
5.403568489e-07
5.575635196e-07
5.418030999e-07
6.131724541e-07
5.052862333e-07
7.970673704e-07
1.517205799e-06
7.618773987e-06
8.235694472e-06
4.027534354e-08
8.260608009e-08
1.152116207e-07
1.429734432e-07
1.677120314e-07
1.902984872e-07
2.112413753e-07
2.308713621e-07
2.49418384e-07
2.670501753e-07
2.838935599e-07
3.000471133e-07
3.15589158e-07
3.305830607e-07
3.450808736e-07
3.591259353e-07
3.727547746e-07
3.859985379e-07
3.988841003e-07
4.114349305e-07
4.236717629e-07
4.356131921e-07
4.472761218e-07
4.586761264e-07
4.698277866e-07
4.807449364e-07
4.91441237e-07
5.019278463e-07
5.1223296e-07
5.222737733e-07
5.326143135e-07
5.405366889e-07
5.57642355e-07
5.424058653e-07
6.123573286e-07
5.032969882e-07
8.966732743e-07
1.958943074e-06
7.890137802e-06
8.518251222e-06
4.026631415e-08
8.258754653e-08
1.151978092e-07
1.429662285e-07
1.67713471e-07
1.903104359e-07
2.112654994e-07
2.309092131e-07
2.49471434e-07
2.671197903e-07
2.839809679e-07
3.00153372e-07
3.157151129e-07
3.307292964e-07
3.452476692e-07
3.593132294e-07
3.72962144e-07
3.862251787e-07
3.991288234e-07
4.116961753e-07
4.239475974e-07
4.359013475e-07
4.475740482e-07
4.589810392e-07
4.70136724e-07
4.810547996e-07
4.917488831e-07
5.022297337e-07
5.12527779e-07
5.225472548e-07
5.329220918e-07
5.405976331e-07
5.586199457e-07
5.398974317e-07
6.195340868e-07
5.02083926e-07
9.607312906e-07
2.331520361e-06
8.151476159e-06
8.803387459e-06
4.025749339e-08
8.256977368e-08
1.151858832e-07
1.429621438e-07
1.677194284e-07
1.903284623e-07
2.112974625e-07
2.309568846e-07
2.495365168e-07
2.672039042e-07
2.840856037e-07
3.002798431e-07
3.158645094e-07
3.309024262e-07
3.454450015e-07
3.595348511e-07
3.732077337e-07
3.864939919e-07
3.994196706e-07
4.120074516e-07
4.242772915e-07
4.362470599e-07
4.479330568e-07
4.593503608e-07
4.705131852e-07
4.814350748e-07
4.921296107e-07
5.026069247e-07
5.129005327e-07
5.228980335e-07
5.33311163e-07
5.40766414e-07
5.594442367e-07
5.387087616e-07
6.230705695e-07
4.9010877e-07
2.347354007e-07
2.759402091e-06
8.400829534e-06
9.089966104e-06
4.024892825e-08
8.255293242e-08
1.151760905e-07
1.429615302e-07
1.67730357e-07
1.90353158e-07
2.113380236e-07
2.31015348e-07
2.496148681e-07
2.673040568e-07
2.842093615e-07
3.004288386e-07
3.160401334e-07
3.311057594e-07
3.456767554e-07
3.597953165e-07
3.734967375e-07
3.868108735e-07
3.997632513e-07
4.123760615e-07
4.246688236e-07
4.36658978e-07
4.483624609e-07
4.597940667e-07
4.709678121e-07
4.818970877e-07
4.925954895e-07
5.030720915e-07
5.133658515e-07
5.233341331e-07
5.338331419e-07
5.408767323e-07
5.609011237e-07
5.358601526e-07
6.310840756e-07
4.442017125e-07
6.206456069e-07
3.172374502e-06
8.636127702e-06
9.379303636e-06
4.024067378e-08
8.253720254e-08
1.15168695e-07
1.429647481e-07
1.677467367e-07
1.90385155e-07
2.11388007e-07
2.310856633e-07
2.497078423e-07
2.674219671e-07
2.843543858e-07
3.006029892e-07
3.16245168e-07
3.313430937e-07
3.459474069e-07
3.600998443e-07
3.738351676e-07
3.87182657e-07
4.001672512e-07
4.128105322e-07
4.251315215e-07
4.371472099e-07
4.488731373e-07
4.603237963e-07
4.715130035e-07
4.824540219e-07
4.931605507e-07
5.0364028e-07
5.139392735e-07
5.238758572e-07
5.344886894e-07
5.410305581e-07
5.626823763e-07
5.325778282e-07
6.392084423e-07
4.140292945e-07
8.271115861e-07
1.462158255e-06
8.862581697e-06
9.673300979e-06
4.023279027e-08
8.252272617e-08
1.151639444e-07
1.429721504e-07
1.677690491e-07
1.904251032e-07
2.114482821e-07
2.311689783e-07
2.498169313e-07
2.675595435e-07
2.845230824e-07
3.008052795e-07
3.164832557e-07
3.316188146e-07
3.462621549e-07
3.60454491e-07
3.742299782e-07
3.876172322e-07
4.006405211e-07
4.133207209e-07
4.256762246e-07
4.377235199e-07
4.494777386e-07
4.609530723e-07
4.721631505e-07
4.831211631e-07
4.938410829e-07
5.043288789e-07
5.146396536e-07
5.24543679e-07
5.35296468e-07
5.412664813e-07
5.647767741e-07
5.288134009e-07
6.486153605e-07
3.83980436e-07
8.719612319e-07
1.516098557e-06
9.101983012e-06
9.970782036e-06
4.022533585e-08
8.250959624e-08
1.151620531e-07
1.429840614e-07
1.677977535e-07
1.904736434e-07
2.115197303e-07
2.312664856e-07
2.499437187e-07
2.677188489e-07
2.847180924e-07
3.01039027e-07
3.167584794e-07
3.319378633e-07
3.46626891e-07
3.608661762e-07
3.746891723e-07
3.881237251e-07
4.011933107e-07
4.139180192e-07
4.263154602e-07
4.384014896e-07
4.501908211e-07
4.616974029e-07
4.72934764e-07
4.839160892e-07
4.946558977e-07
5.051578423e-07
5.154899396e-07
5.253563862e-07
5.363017483e-07
5.415528216e-07
5.673302595e-07
5.245644937e-07
6.584910417e-07
3.554521585e-07
9.547264963e-07
2.007115786e-06
9.335616931e-06
1.027095089e-05
4.021836488e-08
8.249796647e-08
1.151632642e-07
1.430008258e-07
1.678333299e-07
1.905314434e-07
2.116032751e-07
2.313794452e-07
2.500898963e-07
2.679021135e-07
2.849423003e-07
3.013078815e-07
3.170753774e-07
3.323057931e-07
3.47048297e-07
3.613428097e-07
3.752219756e-07
3.88712744e-07
4.018376253e-07
4.14615762e-07
4.270638613e-07
4.391970037e-07
4.510293798e-07
4.625747542e-07
4.738467838e-07
4.848588728e-07
4.956264706e-07
5.061503509e-07
5.16515104e-07
5.263445415e-07
5.375189963e-07
5.420032815e-07
5.700614317e-07
5.209475072e-07
6.677113219e-07
3.358943533e-07
1.053983024e-06
2.49654286e-06
9.561074824e-06
1.057414749e-05
4.021192956e-08
8.248816372e-08
1.151679266e-07
1.430228746e-07
1.678763484e-07
1.905992772e-07
2.116999742e-07
2.315092943e-07
2.502573938e-07
2.681118899e-07
2.85199021e-07
3.016160579e-07
3.174392254e-07
3.327290929e-07
3.475342092e-07
3.618936995e-07
3.758392757e-07
3.893968291e-07
4.025877078e-07
4.15429864e-07
4.279389017e-07
4.401289717e-07
4.520136083e-07
4.636064047e-07
4.749214243e-07
4.859727344e-07
4.967774234e-07
5.073328468e-07
5.177446023e-07
5.27540501e-07
5.389826652e-07
5.426634414e-07
5.730671566e-07
5.175068299e-07
6.775575019e-07
3.121835717e-07
1.180929999e-06
2.900843277e-06
9.775932083e-06
1.088064285e-05
4.020606727e-08
8.248055377e-08
1.151764047e-07
1.430506564e-07
1.679274199e-07
1.906780004e-07
2.118110266e-07
2.316576918e-07
2.50448467e-07
2.68351192e-07
2.854921926e-07
3.019686027e-07
3.178563724e-07
3.332155907e-07
3.480940994e-07
3.625301136e-07
3.765542617e-07
3.901911749e-07
4.034607908e-07
4.163795775e-07
4.289617104e-07
4.412201556e-07
4.531676526e-07
4.648176302e-07
4.761848702e-07
4.87284759e-07
4.981371099e-07
5.087359838e-07
5.192101219e-07
5.289942274e-07
5.406678389e-07
5.439263698e-07
5.74954096e-07
5.202670197e-07
6.762258391e-07
3.086152436e-07
3.648995019e-07
3.33056795e-06
9.977934134e-06
1.118881026e-05
4.020079129e-08
8.247530448e-08
1.151889094e-07
1.430844918e-07
1.679870614e-07
1.907684298e-07
2.119376674e-07
2.31826432e-07
2.506656378e-07
2.686234686e-07
2.858263944e-07
3.023714696e-07
3.183343731e-07
3.337746611e-07
3.487393773e-07
3.632656963e-07
3.773829723e-07
3.911143166e-07
4.044779372e-07
4.174884214e-07
4.301580687e-07
4.424982432e-07
4.545206315e-07
4.662385072e-07
4.776678257e-07
4.888262631e-07
4.997379644e-07
5.103946107e-07
5.209481441e-07
5.307606545e-07
5.425692538e-07
5.461069512e-07
5.747662904e-07
5.334856762e-07
6.529024778e-07
3.577225745e-07
6.837391076e-07
3.775426307e-06
1.016229686e-05
1.149824504e-05
4.019611727e-08
8.247248665e-08
1.152055651e-07
1.431246205e-07
1.680557326e-07
1.908713711e-07
2.120811901e-07
2.320174641e-07
2.509117182e-07
2.689326417e-07
2.86206921e-07
3.02831616e-07
3.188821262e-07
3.344174276e-07
3.494836846e-07
3.641168897e-07
3.783448888e-07
3.921889427e-07
4.056650905e-07
4.187854558e-07
4.31559812e-07
4.439972944e-07
4.561080882e-07
4.679052707e-07
4.794066071e-07
4.906334831e-07
5.01616999e-07
5.123468293e-07
5.23007932e-07
5.328532044e-07
5.449748517e-07
5.47984621e-07
5.785625335e-07
5.321309364e-07
6.60776571e-07
3.410506437e-07
9.221508331e-07
3.293230208e-06
1.033486406e-05
1.181066297e-05
4.019208184e-08
8.24723429e-08
1.152266149e-07
1.431713884e-07
1.681340279e-07
1.909878252e-07
2.122431706e-07
2.322331377e-07
2.51190084e-07
2.692834166e-07
2.866401585e-07
3.03357445e-07
3.195103926e-07
3.35157361e-07
3.503435656e-07
3.651036767e-07
3.794637962e-07
3.934429686e-07
4.070544613e-07
4.203070567e-07
4.332069596e-07
4.45760053e-07
4.579742543e-07
4.698622831e-07
4.814446198e-07
4.927485501e-07
5.038160012e-07
5.146363088e-07
5.25437092e-07
5.353422535e-07
5.478580916e-07
5.502681632e-07
5.837279768e-07
5.245166883e-07
6.954504957e-07
1.18066092e-07
9.363027896e-07
1.542094198e-06
1.052187548e-05
1.212602131e-05
4.018871118e-08
8.247520549e-08
1.152523788e-07
1.432252535e-07
1.682227357e-07
1.911191015e-07
2.12425635e-07
2.324764286e-07
2.515049658e-07
2.696816461e-07
2.871340305e-07
3.039593853e-07
3.202325297e-07
3.360111637e-07
3.513394885e-07
3.662507333e-07
3.807690764e-07
3.94910997e-07
4.086862534e-07
4.220990428e-07
4.351503314e-07
4.478409675e-07
4.601751795e-07
4.721648081e-07
4.8383434e-07
4.952204549e-07
5.063816718e-07
5.173124921e-07
5.282794068e-07
5.383515114e-07
5.510245287e-07
5.544494557e-07
5.838112344e-07
5.436662286e-07
6.70048536e-07
2.410402645e-07
9.946856803e-07
1.947381713e-06
1.070443701e-05
1.244417422e-05
4.018601076e-08
8.248131873e-08
1.152831151e-07
1.432866857e-07
1.683227881e-07
1.912668211e-07
2.126311117e-07
2.327510491e-07
2.518616387e-07
2.701346303e-07
2.876984149e-07
3.046504881e-07
3.210653255e-07
3.369998961e-07
3.524973417e-07
3.675893873e-07
3.82298194e-07
3.966373351e-07
4.106122395e-07
4.242207235e-07
4.374560199e-07
4.503109402e-07
4.627834512e-07
4.748831698e-07
4.866403076e-07
4.98106147e-07
5.093665164e-07
5.204225022e-07
5.316120068e-07
5.418807054e-07
5.549246505e-07
5.587633968e-07
5.882325585e-07
5.508316124e-07
6.509224371e-07
4.41067332e-07
1.064437251e-06
2.338906346e-06
1.087810613e-05
1.276493379e-05
4.018399743e-08
8.24909335e-08
1.153190723e-07
1.43356212e-07
1.68435335e-07
1.914330333e-07
2.128628024e-07
2.330617025e-07
2.522668287e-07
2.706518033e-07
2.8834627e-07
3.054481392e-07
3.220314615e-07
3.381524521e-07
3.538531375e-07
3.691638033e-07
3.84104656e-07
3.986859717e-07
4.129079622e-07
4.267587328e-07
4.402202836e-07
4.532723893e-07
4.659021604e-07
4.78114442e-07
4.899477332e-07
5.01475526e-07
5.128287896e-07
5.240153787e-07
5.355284155e-07
5.458598001e-07
5.602249514e-07
5.623733373e-07
5.963637985e-07
5.515454751e-07
6.785833031e-07
2.996414916e-07
1.132772326e-06
2.689345054e-06
1.104045551e-05
1.308786505e-05
4.018269879e-08
8.250437427e-08
1.153605511e-07
1.434345238e-07
1.685619565e-07
1.916205721e-07
2.131251489e-07
2.334149962e-07
2.527301951e-07
2.71247131e-07
2.890973918e-07
3.063795272e-07
3.231669928e-07
3.395156122e-07
3.554655171e-07
3.710458933e-07
3.862755782e-07
4.011616276e-07
4.15697817e-07
4.298566898e-07
4.436038723e-07
4.568975418e-07
4.69704717e-07
4.820204334e-07
4.938957871e-07
5.054376001e-07
5.168472493e-07
5.281723446e-07
5.40011282e-07
5.507935131e-07
5.657031967e-07
5.689522811e-07
6.028659932e-07
5.598383691e-07
6.867596724e-07
2.94595062e-07
1.238217764e-06
3.003826625e-06
1.119419383e-05
1.341331239e-05
4.018217267e-08
8.252210673e-08
1.154080524e-07
1.435228333e-07
1.687053544e-07
1.918342659e-07
2.134257242e-07
2.338222567e-07
2.53268343e-07
2.719444755e-07
2.899848108e-07
3.074879501e-07
3.245260024e-07
3.411545212e-07
3.574084618e-07
3.733173718e-07
3.889015597e-07
4.041706472e-07
4.191062247e-07
4.336699301e-07
4.477971723e-07
4.614104225e-07
4.74441033e-07
4.868589113e-07
4.987283716e-07
5.102017114e-07
5.215933915e-07
5.32996404e-07
5.453180902e-07
5.563840493e-07
5.72785387e-07
5.766097486e-07
6.097203636e-07
5.767868736e-07
6.905684655e-07
2.934985844e-07
1.327802334e-06
3.28798073e-06
1.133009121e-05
1.374136999e-05
4.018275898e-08
8.254523331e-08
1.154630563e-07
1.436242011e-07
1.688711821e-07
1.920834955e-07
2.137780135e-07
2.343015726e-07
2.539041525e-07
2.727703536e-07
2.910343805e-07
3.087901791e-07
3.261061383e-07
3.430276589e-07
3.595889878e-07
3.758269146e-07
3.917702915e-07
4.074605398e-07
4.228297674e-07
4.37919715e-07
4.525693881e-07
4.666365407e-07
4.800250079e-07
4.926435512e-07
5.045433626e-07
5.159280924e-07
5.272490981e-07
5.387283557e-07
5.51619988e-07
5.630491241e-07
5.820881739e-07
5.836550777e-07
6.266494e-07
5.790296565e-07
6.971453924e-07
4.589424365e-07
1.588278607e-06
3.782879289e-06
1.146293764e-05
1.407200906e-05
4.018558828e-08
8.257573167e-08
1.155279061e-07
1.437428523e-07
1.690648946e-07
1.923742238e-07
2.141838771e-07
2.348434305e-07
2.546048917e-07
2.736502588e-07
2.921046532e-07
3.10052731e-07
3.275641357e-07
3.446207644e-07
3.613618052e-07
3.778482564e-07
3.940983471e-07
4.102390708e-07
4.259794905e-07
4.417800583e-07
4.570912247e-07
4.715824549e-07
4.853013208e-07
4.981254811e-07
5.100813523e-07
5.214483727e-07
5.32861556e-07
5.447224259e-07
5.584662783e-07
5.714840871e-07
5.925290794e-07
5.96026014e-07
6.435008556e-07
5.815845593e-07
7.487596076e-07
4.102123892e-07
1.182239833e-06
3.362858607e-06
1.157555399e-05
1.440504807e-05
4.019098882e-08
8.260866682e-08
1.15589864e-07
1.438555567e-07
1.6924481e-07
1.926291136e-07
2.145116164e-07
2.352366075e-07
2.550533819e-07
2.741456326e-07
2.926622251e-07
3.107598134e-07
3.285884784e-07
3.45936833e-07
3.63553072e-07
3.814698234e-07
3.994578218e-07
4.176378358e-07
4.349746561e-07
4.528230433e-07
4.692417376e-07
4.831412784e-07
4.952167489e-07
5.05859722e-07
5.155665204e-07
5.250861667e-07
5.356165901e-07
5.473237642e-07
5.627040057e-07
5.785440423e-07
6.041045271e-07
6.118409737e-07
6.621506505e-07
6.080989118e-07
7.797197707e-07
4.085219775e-07
1.716851932e-06
4.371920842e-06
1.16673228e-05
1.473948203e-05
4.018538311e-08
8.259082458e-08
1.155481507e-07
1.437921369e-07
1.691699647e-07
1.924755198e-07
2.142723892e-07
2.349199369e-07
2.547612471e-07
2.741822726e-07
2.937125565e-07
3.140466537e-07
3.356522186e-07
3.579129057e-07
3.83177543e-07
4.107466586e-07
4.392575794e-07
4.682080946e-07
4.951171109e-07
5.21452872e-07
5.418477613e-07
5.530161416e-07
5.564205606e-07
5.54411423e-07
5.501360953e-07
5.468761578e-07
5.478294107e-07
5.522093755e-07
5.6561227e-07
5.803156851e-07
6.102389419e-07
6.263187397e-07
6.85339434e-07
6.50680181e-07
7.876387736e-07
4.680717729e-07
1.144572993e-06
3.237513066e-06
1.175240811e-05
1.507657469e-05
4.01146119e-08
8.235441804e-08
1.151376599e-07
1.431638688e-07
1.685083741e-07
1.916122586e-07
2.136159642e-07
2.351556916e-07
2.572945507e-07
2.815411146e-07
3.098535061e-07
3.440338015e-07
3.842035849e-07
4.28450059e-07
4.800080635e-07
5.355397947e-07
5.92025957e-07
6.480967679e-07
7.001597995e-07
7.466178821e-07
7.776213336e-07
7.866890409e-07
7.744764463e-07
7.457643461e-07
7.087127342e-07
6.72369286e-07
6.441127336e-07
6.241789286e-07
6.201343303e-07
6.133842068e-07
6.289500993e-07
6.343414259e-07
7.025614379e-07
6.856507684e-07
8.238964042e-07
5.355367061e-07
1.612905987e-06
4.309081064e-06
1.183537502e-05
1.541573045e-05
3.996513989e-08
8.191171734e-08
1.146459697e-07
1.428061297e-07
1.696577101e-07
1.945532948e-07
2.209081282e-07
2.504343538e-07
2.862479921e-07
3.317914638e-07
3.897619082e-07
4.604205741e-07
5.404871133e-07
6.259857786e-07
7.18655574e-07
8.137136284e-07
9.090256215e-07
1.003398145e-06
1.092042477e-06
1.167181777e-06
1.214725712e-06
1.225380173e-06
1.198526422e-06
1.141897026e-06
1.069722548e-06
9.977407707e-07
9.373239927e-07
8.934725541e-07
8.659603292e-07
8.296577883e-07
7.988873936e-07
7.207973595e-07
6.949815707e-07
7.148527919e-07