/*--------------------------------*- C++ -*----------------------------------*\
| =========                 |                                                 |
| \\      /  F ield         | OpenFOAM: The Open Source CFD Toolbox           |
|  \\    /   O peration     | Version:  v1912                                 |
|   \\  /    A nd           | Website:  www.openfoam.com                      |
|    \\/     M anipulation  |                                                 |
\*---------------------------------------------------------------------------*/
FoamFile
{
    version     2.0;
    format      ascii;
    class       volScalarField;
    location    "0.9";
    object      alpha.gas;
}
// * * * * * * * * * * * * * * * * * * * * * * * * * * * * * * * * * * * * * //

dimensions      [0 0 0 0 0 0 0];


internalField   nonuniform List<scalar> 
4800
(
1.694838709e-165
7.776408546e-166
5.123432938e-166
3.838862102e-166
3.045801575e-166
2.500364965e-166
2.092537857e-166
1.768750291e-166
1.501886907e-166
1.276391788e-166
1.081974336e-166
9.131062006e-167
7.255332017e-167
3.153556996e-164
1.632049311e-163
1.662071394e-163
9.440422558e-164
3.996199764e-164
3.608147066e-162
4.955031677e-159
3.039543746e-156
1.587157225e-153
2.71202657e-151
4.529836545e-148
1.179916205e-149
4.946163404e-137
4.221882442e-137
1.39658109e-146
1.31730051e-111
4.799734434e-108
1.209310234e-123
9.593776336e-82
1.386082243e-80
9.110159827e-83
9.205991236e-66
5.489500801e-84
1.839215807e-53
1.71072081e-71
5.633146441e-05
0.0106142911
2.68841348e-163
1.207225162e-163
7.917493603e-164
5.929976277e-164
4.712270759e-164
3.878948587e-164
3.258645623e-164
2.767955257e-164
2.364400865e-164
2.023483294e-164
1.728762473e-164
1.471611286e-164
1.17978501e-164
3.944876542e-162
2.343115667e-161
2.455723701e-161
1.427384981e-161
5.972013584e-162
1.997315359e-160
2.72992625e-157
1.427006582e-154
3.673371267e-152
2.433598392e-150
1.345285459e-146
1.172318545e-149
1.112228163e-136
7.243499746e-134
1.387642126e-146
0
5.299935023e-105
0
5.945201301e-81
9.787224353e-81
5.662091376e-83
7.39474076e-65
5.39134635e-84
1.659019827e-52
2.920478785e-71
0.0001978132035
0.01526507299
1.983935977e-161
8.790873524e-162
5.743894335e-162
4.300133517e-162
3.421783259e-162
2.823560339e-162
2.380296512e-162
2.031074907e-162
1.744648544e-162
1.502912461e-162
1.293502683e-162
1.110112851e-162
8.972056519e-163
2.271494505e-160
1.56408356e-159
1.68012163e-159
9.953785328e-160
4.189229141e-160
5.02922942e-159
6.830609954e-156
3.211864253e-153
3.316909668e-151
2.030405141e-150
2.925931382e-144
9.520142108e-145
5.807119806e-152
5.34544539e-129
5.609512078e-129
0
1.908687828e-101
3.728641034e-120
2.282529399e-79
0
6.999753125e-64
3.509753531e-62
3.212464998e-84
3.293540377e-50
0
0.0004349293752
0.02068466817
9.302189049e-160
4.080226916e-160
2.657421656e-160
1.988628368e-160
1.58447556e-160
1.310550964e-160
1.10858429e-160
9.50215722e-161
8.207913281e-161
7.117756585e-161
6.172273811e-161
5.342253922e-161
4.354219549e-161
8.184393691e-159
6.61313488e-158
7.270394343e-158
4.386843448e-158
1.87163229e-158
8.055113334e-158
1.049795955e-154
4.592894858e-152
1.541423817e-150
1.039043407e-150
9.772138939e-142
2.609404017e-142
2.226033312e-159
6.201158182e-125
3.960278084e-125
0
1.618679995e-98
0
5.39445975e-78
9.685723231e-97
4.257380897e-61
6.240839683e-60
6.075136388e-81
4.018171552e-48
5.904340668e-67
0.0007266317605
0.0257549754
3.128137302e-158
1.360355921e-158
8.834356966e-159
6.608462693e-159
5.272084485e-159
4.370876529e-159
3.710023551e-159
3.194745377e-159
2.775667334e-159
2.423907267e-159
2.118981468e-159
1.851334278e-159
1.523639029e-159
2.076545913e-157
1.996854619e-156
2.243573714e-156
1.377903544e-156
5.976053235e-157
9.88701511e-157
1.105414045e-153
4.56009736e-151
3.991975445e-150
1.039527312e-150
1.028509806e-140
3.555322735e-141
1.576444304e-159
3.230697801e-122
1.397932662e-122
6.317976028e-142
3.645026252e-95
0
7.276409735e-77
0
7.145042912e-59
4.311128674e-58
5.960347958e-78
2.461783e-46
1.833631581e-67
0.001103713664
0.03016574493
8.049187916e-157
3.473316719e-157
2.249609062e-157
1.682230731e-157
1.343775934e-157
1.116754169e-157
9.5130387e-158
8.231969368e-158
7.19703515e-158
6.333687298e-158
5.58830999e-158
4.937960787e-158
4.115427398e-158
3.946448547e-156
4.589240781e-155
5.261040792e-155
3.287085641e-155
1.450616752e-155
1.135158003e-155
8.433214059e-153
3.283598778e-150
7.536882412e-150
1.185460059e-150
1.036913419e-140
1.03418858e-140
0
1.208493584e-120
6.732131185e-121
0
3.455694875e-92
0
6.033606334e-76
6.855993784e-95
3.271880244e-57
1.337674383e-56
2.737773567e-76
4.791539457e-45
6.839016247e-69
0.001454678939
0.03402028016
1.649281202e-155
7.064778278e-156
4.564246501e-156
3.412203456e-156
2.729462805e-156
2.274208288e-156
1.944834289e-156
1.692110234e-156
1.489976634e-156
1.323272034e-156
1.181091862e-156
1.059521509e-156
8.995987465e-157
5.826198065e-155
8.341950977e-154
9.738398099e-154
6.187513549e-154
2.779682763e-154
1.416925303e-154
4.809448573e-152
1.758494075e-149
3.238526016e-149
3.553540237e-147
4.308855354e-147
6.720421857e-138
1.105396001e-153
4.68594758e-120
5.529729096e-118
0
6.327298094e-90
0
3.05032861e-75
0
4.520225333e-56
2.074454717e-55
0
2.949326806e-44
1.655588914e-66
0.001838245067
0.03744118864
2.764127455e-154
1.175586286e-154
7.577009907e-155
5.663929895e-155
4.537981138e-155
3.792358089e-155
3.257859565e-155
2.852981529e-155
2.534481296e-155
2.277827443e-155
2.066029018e-155
1.895551687e-155
1.658871641e-155
6.834390297e-154
1.229247266e-152
1.457655158e-152
9.415551851e-153
4.308002314e-153
1.858595717e-153
2.086552491e-151
7.06318983e-149
7.079381808e-148
6.816775073e-146
4.332685075e-153
3.089373417e-135
9.166402835e-135
0
1.241629281e-113
0
4.510187879e-88
0
9.969570625e-75
1.445655568e-93
2.771816366e-55
1.737704063e-54
6.949328487e-74
3.167004173e-44
6.557011909e-65
0.002403935404
0.04045376046
3.863291947e-153
1.63140279e-153
1.049229958e-153
7.844822035e-154
6.298699464e-154
5.283781519e-154
4.565614115e-154
4.0326098e-154
3.626328959e-154
3.316048819e-154
3.083706109e-154
2.934043183e-154
2.702013413e-154
6.463489307e-153
1.492435638e-151
1.791450065e-151
1.175908483e-151
5.484463623e-152
2.278302815e-152
6.955832108e-151
1.965379413e-148
1.814085548e-146
1.477851489e-142
4.17541333e-153
4.722200816e-133
1.493141334e-132
1.130591235e-151
2.30209543e-109
5.021982612e-128
2.41056578e-86
0
3.900437007e-74
0
9.960662587e-55
7.908180821e-54
0
3.161638971e-44
1.788388358e-64
0.002982430489
0.04315097566
4.572409689e-152
1.917046242e-152
1.230789117e-152
9.210443268e-153
7.418858825e-153
6.257523089e-153
5.452746335e-153
4.877634917e-153
4.469448482e-153
4.202845597e-153
4.074160958e-153
4.11508205e-153
4.11208922e-153
4.989173389e-152
1.508476471e-150
1.824262526e-150
1.215394252e-150
5.787381863e-151
2.436365439e-151
1.807078935e-150
1.810279748e-150
1.263623551e-141
1.698425225e-140
3.73584037e-153
2.230633494e-131
6.793407797e-131
0
9.562685341e-106
0
8.578485511e-85
3.093912194e-103
2.43160946e-73
4.754768778e-92
2.526413232e-54
1.328108171e-53
5.630586535e-73
3.157473585e-44
0
0.003545791822
0.04558405403
4.647719126e-151
1.934553299e-151
1.240912924e-151
9.308032314e-152
7.538725864e-152
6.415454929e-152
5.667139659e-152
5.175917058e-152
4.894973405e-152
4.826994753e-152
5.011460711e-152
5.541722351e-152
6.201508572e-152
3.240012635e-151
1.275686221e-149
1.545535754e-149
1.04217018e-149
5.081069422e-150
2.219508794e-150
3.850474145e-150
1.80786006e-150
2.590413339e-137
1.149432856e-138
5.647681679e-153
4.428372314e-130
1.320692764e-129
0
5.357212597e-103
0
1.565135383e-83
2.298799257e-102
4.334970644e-73
0
6.153536939e-54
1.329211101e-53
3.006596112e-72
3.150107437e-44
0
0.004096200886
0.04779889516
4.124012273e-150
1.704227016e-150
1.094245085e-150
8.254498738e-151
6.755709273e-151
5.841276159e-151
5.283997481e-151
5.002892865e-151
4.99555475e-151
5.324203661e-151
6.106067456e-151
7.574546162e-151
9.633660733e-151
2.043408667e-150
9.001023826e-149
1.087352511e-148
7.389800572e-149
3.713576147e-149
1.714710196e-149
7.282716841e-150
1.807335048e-150
8.197540482e-135
6.413093722e-136
3.873394428e-154
7.72474754e-126
3.07440483e-127
0
7.77622011e-101
1.694478373e-119
1.097918876e-82
0
4.341565783e-73
4.91136031e-92
6.360794565e-54
4.011971759e-54
0
2.567037639e-45
0
0.004639169537
0.0498314648
3.270199777e-149
1.342248923e-149
8.664678088e-150
6.623728621e-150
5.534875868e-150
4.926634387e-150
4.6455639e-150
4.676979024e-150
5.092105841e-150
6.025905974e-150
7.718257189e-150
1.084238985e-149
1.547192665e-149
1.886927295e-149
5.219556781e-148
6.277046418e-148
4.299417283e-148
2.270626203e-148
1.139925931e-148
7.202050452e-150
3.28928433e-148
8.580874455e-134
4.348729888e-132
0
1.758082157e-120
3.175431097e-122
0
6.397831354e-99
0
1.483220218e-82
0
4.344693173e-73
0
6.353354381e-54
0
3.049928682e-48
0
1.349852412e-06
0.005174856966
0.05171079639
2.404953195e-148
9.821839427e-149
6.438921582e-149
5.065907035e-149
4.397718451e-149
4.113089389e-149
4.15680027e-149
4.598015661e-149
5.557139428e-149
7.187399739e-149
1.021374733e-148
1.652032497e-148
2.472865794e-148
2.774758428e-148
2.438420217e-147
2.90432938e-147
2.050667245e-147
1.202145e-147
6.906128188e-148
2.492686675e-155
3.104558487e-137
6.049347709e-151
3.575121388e-127
1.030338822e-143
5.002143302e-117
1.663344389e-118
0
4.075788093e-97
1.498599754e-115
1.482310778e-82
5.999812919e-102
4.33792997e-73
0
6.348602282e-54
0
1.716051704e-47
0
5.318410954e-06
0.005706995971
0.05345717912
1.736321778e-147
7.087924252e-148
4.798543105e-148
3.957298169e-148
3.638507509e-148
3.706245872e-148
4.181381e-148
5.09503702e-148
6.458300602e-148
8.590256103e-148
1.497860244e-147
2.634186778e-147
3.476917503e-147
3.844544655e-147
9.835617332e-147
1.133657239e-146
8.973458914e-147
6.327302968e-147
4.210044331e-147
8.2934059e-159
1.762717011e-132
1.950267019e-150
9.376553295e-124
5.270020594e-125
1.619499577e-115
9.625718622e-116
0
1.030202868e-95
0
1.478646383e-82
0
4.329417278e-73
1.913322955e-92
6.344843938e-54
0
1.999975464e-47
0
1.190399995e-05
0.00624055353
0.05508500032
1.327792907e-146
5.402960692e-147
3.780312495e-147
3.263214873e-147
3.345381537e-147
4.119608986e-147
5.090692847e-147
5.986329956e-147
6.946655363e-147
1.045369086e-146
2.998763044e-146
3.607632072e-146
3.484504297e-146
4.375557444e-146
8.087535673e-146
1.182431454e-145
1.087957011e-145
7.176952249e-146
3.911974731e-146
1.109934686e-159
7.121424937e-129
0
7.620501195e-122
2.286085634e-123
0
7.120211726e-111
0
8.244995344e-95
1.275846301e-113
1.477745885e-82
1.753379432e-101
4.318372532e-73
5.259005277e-92
5.214987892e-54
0
1.999346122e-47
2.673418756e-70
2.062829536e-05
0.006775507912
0.05660880949
1.113646924e-145
4.30463738e-146
2.968672427e-146
2.842057971e-146
4.351803623e-146
6.682217724e-146
6.414029478e-146
5.748914369e-146
6.651370521e-146
2.733667648e-145
3.073091631e-144
3.699916218e-143
3.244662286e-142
1.729956939e-141
5.227712854e-141
8.972136646e-141
8.100132998e-141
4.693088595e-141
2.027723718e-141
2.019232021e-159
1.277912674e-126
1.407730368e-144
3.9988697e-121
8.689539059e-120
2.303721713e-138
7.259007529e-106
0
2.503705677e-94
0
1.476960696e-82
0
4.089345583e-73
6.225036239e-92
2.848639234e-54
3.859643985e-73
1.9988063e-47
4.171348359e-68
3.102868095e-05
0.007310758741
0.05804276178
8.814249898e-145
3.037371319e-145
2.315548145e-145
4.873896025e-145
2.051573539e-144
9.087311889e-144
4.257327774e-143
2.564339283e-142
2.129101092e-141
2.345047403e-140
3.005120855e-139
3.60982929e-138
3.12393111e-137
1.640610085e-136
4.873102108e-136
8.231581963e-136
7.112061188e-136
3.969618532e-136
1.676249099e-136
0
1.765599793e-125
2.617672973e-126
8.511621487e-140
6.664665095e-115
0
6.94684536e-101
0
3.573367634e-94
2.299191727e-113
1.467638976e-82
0
2.976162311e-73
7.720257679e-93
8.398294869e-55
5.700457466e-74
1.7461336e-47
1.490065862e-68
4.280848642e-05
0.007845370694
0.05939930682
1.647832392e-141
1.767258801e-141
6.21522747e-141
3.369843366e-140
1.787638332e-139
8.211319563e-139
3.85918904e-138
2.324521088e-137
1.933381869e-136
2.136032867e-135
2.742613592e-134
3.274042405e-133
2.795450114e-132
1.446718086e-131
4.232452368e-131
7.024384112e-131
5.799548545e-131
3.114145109e-131
1.291188869e-131
3.880282424e-145
3.550582202e-125
4.855218524e-123
0
1.329154371e-110
3.287700502e-139
9.182182229e-98
0
3.6465337e-94
0
1.271139349e-82
0
1.325650259e-73
1.321394012e-92
1.02148205e-55
1.662513719e-74
9.569545309e-48
2.006781237e-69
5.582393313e-05
0.008378820335
0.06068827006
1.208691235e-136
1.315477443e-136
4.883423674e-136
2.745285355e-135
1.494045398e-134
6.93604287e-134
3.265531287e-133
1.966431459e-132
1.637639539e-131
1.81468409e-130
2.334092443e-129
2.766108176e-128
2.330548174e-127
1.189175773e-126
3.428638707e-126
5.582693899e-126
4.402719262e-126
2.270655042e-126
9.233039825e-127
5.941194805e-127
9.412555902e-136
2.828610099e-119
1.882620325e-138
7.390858423e-108
2.416325815e-109
2.165408012e-96
5.328430221e-97
3.659618463e-94
0
7.779003855e-83
0
2.795406766e-74
1.808239486e-93
3.666390166e-57
0
2.407532389e-48
1.909255924e-71
6.999501667e-05
0.008910426366
0.06191622988
8.350289364e-132
9.215137842e-132
3.602108964e-131
2.094632927e-130
1.168219358e-129
5.479849888e-129
2.584095812e-128
1.55514416e-127
1.2961814e-126
1.440879353e-125
1.85558121e-124
2.180848686e-123
1.814126457e-122
9.130697468e-122
2.595924671e-121
4.13735235e-121
3.117926641e-121
1.541604847e-121
6.174070084e-122
4.390762563e-122
3.467783771e-136
1.189805943e-116
6.659048121e-135
1.939961418e-106
5.108673741e-108
1.882925346e-115
5.088287457e-92
6.685608283e-93
1.658752846e-119
4.424663554e-84
0
1.903864357e-75
4.586653661e-94
2.738218401e-59
0
1.942202738e-49
1.411526576e-72
8.549904937e-05
0.009439420385
0.06308725827
5.445577424e-127
6.085764899e-127
2.497744527e-126
1.498772727e-125
8.559669569e-125
4.056421443e-124
1.915392126e-123
1.151412657e-122
9.601799173e-122
1.0711913e-120
1.379869776e-119
1.607232966e-118
1.32110743e-117
6.56020168e-117
1.840254825e-116
2.861572442e-116
2.063261751e-116
9.760775376e-117
3.879216611e-117
3.00365571e-117
3.456297145e-117
9.168374874e-115
3.78630167e-130
5.064108203e-106
1.259281962e-105
6.962727764e-120
4.072038122e-87
4.416486123e-88
2.507011237e-90
0
2.327569456e-75
6.381889998e-76
0
3.099512815e-62
0
3.389872798e-51
7.501256139e-70
0.0001023260606
0.009965028134
0.06420619163
3.359043917e-122
3.794690151e-122
1.629876996e-121
1.006843253e-120
5.885992816e-120
2.817690431e-119
1.331542202e-118
7.990491643e-118
6.666957957e-117
7.467219866e-116
9.608424461e-115
1.109006833e-113
9.016180677e-113
4.416628978e-112
1.22330617e-111
1.848073442e-111
1.277437003e-111
5.771331722e-112
2.296857418e-112
1.958706614e-112
3.221348218e-112
4.933321244e-112
4.395085974e-112
1.750880615e-124
4.548506658e-101
0
2.776314734e-82
2.299955255e-83
9.044854464e-86
1.166725801e-104
1.359135499e-73
6.264043208e-76
1.588263296e-67
2.177506103e-66
0
8.893919743e-54
1.876631054e-78
0.0001210123546
0.01048713716
0.06527828848
1.963089856e-117
2.236681078e-117
1.001642542e-116
6.35698542e-116
3.80392545e-115
1.838880338e-114
8.690037609e-114
5.202949836e-113
4.345171428e-112
4.886290538e-111
6.270672342e-110
7.176135356e-109
5.774811692e-108
2.789227086e-107
7.635331192e-107
1.114845664e-106
7.40631782e-107
3.190441352e-107
1.285890221e-107
1.213869078e-107
2.123546784e-107
3.100205985e-107
2.960728521e-107
1.181477593e-125
1.647172259e-96
7.528553839e-115
5.536105711e-79
4.904233553e-80
2.76862354e-82
1.299222918e-84
5.009279663e-73
1.033741042e-72
1.59706061e-67
2.457843789e-80
3.718704833e-57
1.103133662e-56
2.861504914e-75
0.0001415862367
0.01100597968
0.06630838708
1.088332449e-112
1.247285713e-112
5.800622733e-112
3.776437178e-111
2.313379596e-110
1.128534234e-109
5.328160905e-109
3.181958669e-108
2.661677788e-107
3.003533717e-106
3.838990191e-105
4.361354262e-104
3.47482264e-103
1.653619042e-102
4.479835164e-102
6.28366486e-102
4.023136863e-102
1.65053239e-102
6.830356129e-103
7.13404537e-103
1.321949203e-102
1.935765329e-102
1.866444534e-102
0
1.235400905e-92
1.88488198e-112
3.926387231e-77
7.073946686e-78
1.339386862e-79
3.478416546e-82
2.841599097e-91
1.336159371e-69
1.363084028e-67
3.810305557e-70
3.731228937e-57
3.116686075e-57
3.76888907e-79
0.0001637284969
0.01152153124
0.06730087425
5.728408002e-108
6.583826885e-108
3.167149103e-107
2.113299596e-106
1.325272305e-105
6.516677967e-105
3.071073631e-104
1.829609109e-103
1.534066114e-102
1.734909102e-101
2.207066038e-100
2.492990066e-99
1.965498294e-98
9.209058496e-98
2.473516971e-97
3.310213276e-97
2.047947678e-97
7.997004028e-98
3.448704632e-98
3.985443907e-98
7.777436302e-98
1.144581096e-97
1.120224905e-97
0
5.765418419e-90
2.524278226e-107
1.953761758e-76
4.666946669e-75
1.013355558e-75
1.965427642e-77
2.247708183e-96
3.86353937e-65
2.116669724e-65
6.191796939e-84
2.290466576e-57
1.447322809e-57
3.317288977e-80
0.0001871506641
0.01203387521
0.06825827896
2.863840058e-103
3.290330107e-103
1.631405475e-102
1.115315899e-101
7.156317234e-101
3.541842495e-100
1.665088593e-99
9.901667318e-99
8.325165663e-98
9.41865373e-97
1.19303711e-95
1.341611297e-94
1.045344123e-93
4.820470487e-93
1.286599227e-92
1.630580329e-92
9.769383942e-93
3.630896092e-93
1.65488845e-93
2.122285378e-93
4.325197908e-93
6.420797402e-93
6.4031697e-93
1.472271848e-106
3.091672263e-88
7.650299929e-89
4.83554412e-95
2.92322401e-70
5.997793938e-71
1.040984645e-72
2.251510429e-91
4.622935306e-62
3.215483702e-62
1.385192415e-80
3.689285407e-56
1.419727253e-56
2.096224371e-77
0.0002116292637
0.01254275021
0.06917958616
1.36021063e-98
1.557032829e-98
7.934307686e-98
5.557042413e-97
3.643401968e-96
1.812276819e-95
8.498730338e-95
5.048846776e-94
4.25530791e-93
4.806873826e-92
6.072174356e-91
6.800634504e-90
5.227471727e-89
2.373499746e-88
6.310244046e-88
7.515407938e-88
4.366781754e-88
1.545508668e-88
7.554860448e-89
1.076665732e-88
2.276368036e-88
3.424198986e-88
3.493521209e-88
2.123883503e-88
5.101267309e-87
2.660360208e-87
3.149700624e-106
1.712221574e-65
3.171760098e-66
4.557240457e-68
0
4.390621695e-60
5.85356251e-60
0
3.360205901e-55
1.503279299e-55
0
0.0002391306564
0.01304543628
0.07006284464
6.139220915e-94
6.978203919e-94
3.647159581e-93
2.615785755e-92
1.748719613e-91
8.73291314e-91
4.087427878e-90
2.427528871e-89
2.048329947e-88
2.307364361e-87
2.913920812e-86
3.24664791e-85
2.45791652e-84
1.100414889e-83
2.919802394e-83
3.244006128e-83
1.82856132e-83
6.169618678e-84
3.282724003e-84
5.201444888e-84
1.135549677e-83
1.740051317e-83
1.82111023e-83
1.172923785e-83
4.828477585e-84
1.180275817e-84
0
1.615850008e-61
2.777720302e-62
4.209657678e-64
5.392415673e-83
5.35914666e-59
1.257588184e-58
1.120340761e-77
3.373608073e-55
3.25696412e-55
3.279682704e-74
0.0002677118799
0.01354246183
0.07090961982
2.634344784e-89
2.963408102e-89
1.586265096e-88
1.16346286e-87
7.911103778e-87
3.965542329e-86
1.85426908e-85
1.101028046e-84
9.281595331e-84
1.042719779e-82
1.319737212e-81
1.458829051e-80
1.086915884e-79
4.809951838e-79
1.27410568e-78
1.313268781e-78
7.169389292e-79
2.310690299e-79
1.35772906e-79
2.392749291e-79
5.378542439e-79
8.442055654e-79
9.073811095e-79
5.865285735e-79
2.408041417e-79
5.966185939e-80
1.891888992e-98
5.797844608e-59
1.111384632e-59
2.567280784e-61
3.65767579e-79
1.628544572e-58
1.891197627e-58
2.218756101e-64
2.589265739e-55
1.350544263e-53
3.739403855e-75
0.0002970254142
0.0140336349
0.07172283882
1.075507098e-84
1.193469221e-84
6.533709331e-84
4.887986245e-83
3.373210167e-82
1.69854395e-81
7.941684227e-81
4.71002432e-80
3.957650782e-79
4.442621185e-78
5.64281323e-77
6.164169731e-76
4.523694962e-75
1.984833612e-74
5.232156353e-74
5.001253226e-74
2.626867001e-74
8.12336909e-75
5.344839467e-75
1.048411146e-74
2.423166099e-74
3.915562916e-74
4.320298961e-74
2.803363763e-74
1.159816258e-74
2.99287578e-75
1.791500648e-93
1.279607034e-57
5.205508871e-58
4.139394427e-59
4.035719618e-61
1.882753153e-58
1.889237545e-58
3.105347894e-56
3.101127522e-56
4.316861814e-50
1.791935622e-71
0.0003267441896
0.01451953307
0.07250640432
4.181414516e-80
4.56322107e-80
2.549509706e-79
1.938207197e-78
1.356232792e-77
6.87080854e-77
3.212720867e-76
1.899026893e-75
1.588060565e-74
1.787531793e-73
2.276205075e-72
2.447685254e-71
1.774194516e-70
7.740513508e-70
2.015331556e-69
1.796349983e-69
8.982439012e-70
2.68290256e-70
2.002934037e-70
4.377797017e-70
1.039805137e-69
1.736756895e-69
1.963509783e-69
1.279740619e-69
5.353372827e-70
1.456897362e-70
4.58829367e-85
3.173412127e-57
4.00018424e-55
1.523043635e-55
9.49226332e-57
2.867359487e-58
1.891197627e-58
6.656874264e-55
3.143305832e-56
2.669799863e-47
0
0.000356433543
0.0150006815
0.07326519618
1.549088397e-75
1.657985959e-75
9.420341931e-75
7.248244976e-74
5.147399658e-73
2.627782132e-72
1.227302436e-71
7.209250252e-71
6.001549964e-70
6.801785769e-69
8.64855402e-68
9.13419482e-67
6.567509345e-66
2.853788969e-65
7.264005162e-65
6.080349785e-65
2.86714058e-65
8.340520176e-66
7.148848054e-66
1.742773441e-65
4.252019949e-65
7.360475651e-65
8.503422332e-65
5.573303786e-65
2.367342168e-65
6.881231033e-66
1.221124507e-66
0
1.725218804e-50
6.648953402e-51
4.319544883e-52
2.821727294e-54
6.751026203e-56
6.280187663e-54
3.101127522e-56
4.104936774e-45
2.066718917e-66
0.0003852913831
0.01547740995
0.07400332986
5.467740615e-71
5.726192238e-71
3.291887083e-70
2.555844311e-69
1.847233694e-68
9.507880875e-68
4.422845751e-67
2.574888138e-66
2.139690073e-65
2.448954455e-64
3.088679181e-63
3.207178631e-62
2.29776079e-61
9.938816243e-61
2.443837619e-60
1.935309638e-60
8.538416484e-61
2.449682414e-61
2.431687533e-61
6.613291088e-61
1.655897578e-60
2.974980357e-60
3.502600814e-60
2.313416454e-60
1.003463147e-60
3.049336925e-61
6.023204905e-62
0
7.235612816e-46
2.734826517e-46
1.763836739e-47
1.214184585e-49
9.859276862e-53
3.632154986e-53
3.143305832e-56
2.157153234e-43
0
0.0004130465693
0.01594865289
0.07472052932
1.836353919e-66
1.878376984e-66
1.08610885e-65
8.504676781e-65
6.279133449e-64
3.253350162e-63
1.501191015e-62
8.652705496e-62
7.212628245e-61
8.336005854e-60
1.034864996e-58
1.061978746e-57
7.602881467e-57
3.262992881e-56
7.65644524e-56
5.773122548e-56
2.368942494e-56
6.837938188e-57
7.89110255e-57
2.388706045e-56
6.130108228e-56
1.144207904e-55
1.370585729e-55
9.15339918e-56
4.083667863e-56
1.311729175e-56
2.818335033e-57
3.669836089e-76
2.265013361e-41
9.107096827e-42
6.229017487e-43
4.49985978e-45
4.059643915e-48
1.737597106e-51
3.185485586e-56
5.003047621e-42
0
0.0004458498259
0.01640672374
0.07541341864
5.854568157e-62
5.840971018e-62
3.37901068e-61
2.675952144e-60
2.024038885e-59
1.051145852e-58
4.791796133e-58
2.73942482e-57
2.303392262e-56
2.676124719e-55
3.250892744e-54
3.325972904e-53
2.377297765e-52
1.006832415e-51
2.230133914e-51
1.608102431e-51
6.107314602e-52
1.815066872e-52
2.469242023e-52
8.178766474e-52
2.151526702e-51
4.181072718e-51
5.096623603e-51
3.458461306e-51
1.60131343e-51
5.494967103e-52
1.297491313e-52
9.963407871e-71
3.351322435e-38
1.487239675e-38
1.432052902e-39
1.868505638e-41
2.991548323e-44
1.331246337e-47
3.227666762e-56
6.046908612e-41
0
0.0004781302145
0.01685356117
0.07608165954
1.766969124e-57
1.717284368e-57
9.912520307e-57
7.98416174e-56
6.185638014e-55
3.199070013e-54
1.437699128e-53
8.193239398e-53
6.974693104e-52
8.073097647e-51
9.590013541e-50
9.876243847e-49
7.007550357e-48
2.910698244e-47
6.03792465e-47
4.169927523e-47
1.457984781e-47
4.595505163e-48
7.449634825e-48
2.645709144e-47
7.141234767e-47
1.451974636e-46
1.80542386e-46
1.252577557e-46
6.080474877e-47
2.248071208e-47
5.873292194e-48
0
3.149317237e-36
1.609722957e-36
2.487568145e-37
6.78349617e-39
2.326696895e-41
1.475365191e-44
3.223133484e-56
4.191908794e-40
1.650720087e-60
0.0005086678946
0.01728994363
0.07672640255
5.038743056e-53
4.763308083e-53
2.747252349e-52
2.26497686e-51
1.788588429e-50
9.148639511e-50
4.060302065e-49
2.322637094e-48
2.000022846e-47
2.279485475e-46
2.66781494e-45
2.78229878e-44
1.939658588e-43
7.869449079e-43
1.522465966e-42
1.005199663e-42
3.210565159e-43
1.113836373e-43
2.156720452e-43
8.054743178e-43
2.239184119e-42
4.806713741e-42
6.119144234e-42
4.3707289e-42
2.246281754e-42
8.985901465e-43
2.606484966e-43
5.710648836e-62
2.985831844e-35
2.538496693e-35
8.686945887e-36
6.453009877e-37
6.383876345e-39
7.715673749e-42
3.26629757e-56
1.900728479e-39
0
0.0005370359042
0.01771553937
0.07734897515
1.357967704e-48
1.246028262e-48
7.221175002e-48
6.115979043e-47
4.874951783e-46
2.456034672e-45
1.083324065e-44
6.255855963e-44
5.412466161e-43
6.008288468e-42
7.040279622e-41
7.420659063e-40
5.016940256e-39
1.992109066e-38
3.591074936e-38
2.254644506e-38
6.498064925e-39
2.587218322e-39
5.949933887e-39
2.299683039e-38
6.647630969e-38
1.5254831e-37
1.99391403e-37
1.475884931e-37
8.088749469e-38
3.496716812e-38
1.126102539e-38
0
4.659197423e-35
7.941640067e-34
4.020598907e-34
6.628772569e-35
2.282707069e-36
1.165960733e-38
1.178328997e-41
6.162644293e-39
1.249558209e-59
0.0005634030005
0.01813134116
0.07795093098
3.470202154e-44
3.081825577e-44
1.808412496e-43
1.569558248e-42
1.246850511e-41
6.20241334e-41
2.744275395e-40
1.600712723e-39
1.375187719e-38
1.479864327e-37
1.771534404e-36
1.864744378e-35
1.207108607e-34
4.746897093e-34
7.970209969e-34
4.717242764e-34
1.205487692e-34
5.744615582e-35
1.551909488e-34
6.146998108e-34
1.881934746e-33
4.670071385e-33
6.263002433e-33
4.829253801e-33
2.831430522e-33
1.314376043e-33
4.446598014e-34
7.425309748e-35
1.699535426e-48
2.176384203e-29
1.032116386e-29
1.619698816e-30
5.429052571e-32
2.847634237e-34
2.947116046e-37
1.320501109e-38
6.682641334e-57
0.0005854092213
0.0185361284
0.07853456137
8.456685024e-40
7.245939318e-40
4.328293988e-39
3.811651705e-38
2.983285639e-37
1.481926453e-36
6.625477032e-36
3.877144268e-35
3.260964828e-34
3.430066284e-33
4.255447067e-32
4.386105966e-31
2.697345304e-30
1.073026574e-29
1.671878058e-29
9.217322718e-30
2.045258878e-30
1.211661284e-30
3.798327619e-30
1.542878501e-29
5.138986671e-29
1.38326065e-28
1.892839142e-28
1.526669936e-28
9.566866043e-29
4.717364457e-29
1.692630096e-29
3.142254021e-30
0
1.266990589e-25
9.267556101e-26
2.865539107e-26
2.212506581e-27
2.647095739e-29
4.31721217e-32
1.952538497e-35
0
0.0006076646965
0.01892867186
0.07910184543
1.976107558e-35
1.629491446e-35
9.894800923e-35
8.702572739e-34
6.689345948e-33
3.375893128e-32
1.524260976e-31
8.833574447e-31
7.175845338e-30
7.575031811e-29
9.71093442e-28
9.585411691e-27
5.642158497e-26
2.313762969e-25
3.313103104e-25
1.674283758e-25
3.163421846e-26
2.405690498e-26
8.667359885e-26
3.678617361e-25
1.368903603e-24
3.952172452e-24
5.469600633e-24
4.635691208e-24
3.092369945e-24
1.597024203e-24
6.248050764e-25
1.309651165e-25
1.189273137e-41
4.548400673e-23
5.610421255e-23
3.357297073e-23
6.455630624e-24
2.308102378e-25
1.03004092e-27
6.974746528e-31
0
0.000623402632
0.01931228241
0.0796556254
4.435484613e-31
3.51666458e-31
2.150086034e-30
1.854362033e-29
1.418761814e-28
7.367645236e-28
3.322706308e-27
1.878508127e-26
1.459698087e-25
1.613701407e-24
2.085951562e-23
1.933211267e-22
1.124744727e-21
4.736805366e-21
6.155467525e-21
2.785343459e-21
4.436999538e-22
4.449645127e-22
1.836816337e-21
8.483139025e-21
3.563541661e-20
1.078135348e-19
1.497381786e-19
1.34329939e-19
9.477028301e-20
5.03813038e-20
2.28125177e-20
4.852911912e-21
2.129525818e-22
2.02914411e-21
4.823090907e-21
3.904323036e-21
1.428315727e-21
1.339595064e-22
1.880466801e-24
2.895537601e-27
8.66486573e-46
0.0006347332655
0.01968288004
0.08019859911
9.516128741e-27
7.262465287e-27
4.403317503e-26
3.660609293e-25
2.89016014e-24
1.537302241e-23
6.801841305e-23
3.703191699e-22
2.767803394e-21
3.317450271e-20
4.166897846e-19
3.575024938e-18
2.195045298e-17
9.100246109e-17
1.063217794e-16
4.145507778e-17
5.679507059e-18
7.628566542e-18
3.68467701e-17
1.923636544e-16
8.985114509e-16
2.773996612e-15
3.857417707e-15
3.703182969e-15
2.730706822e-15
1.462048204e-15
4.319110038e-16
4.445540537e-17
1.1812185e-18
9.319979222e-20
1.295128946e-19
1.2310251e-19
6.863745228e-20
1.309176775e-20
4.925442215e-22
2.127944078e-24
9.017592928e-43
0.0006482438366
0.02004283866
0.08073028335
1.932902214e-22
1.423913031e-22
8.42369311e-22
6.706205375e-21
5.704164236e-20
3.032746056e-19
1.293344925e-18
6.722299498e-18
5.084002057e-17
6.517396763e-16
7.689820699e-15
6.059949513e-14
2.780919201e-13
6.677093735e-13
5.894903863e-13
2.103278479e-13
6.379221273e-14
1.251782761e-13
6.440416002e-13
2.694020021e-12
9.202248827e-12
1.877420866e-11
2.057944951e-11
1.599177671e-11
8.533237928e-12
2.876375476e-12
4.509880492e-13
2.433958465e-14
5.882968849e-16
5.466159888e-16
3.493074971e-16
1.984694861e-16
6.715517059e-17
1.264284467e-17
1.057563332e-18
1.913333825e-20
0
0.0006564446247
0.02038630206
0.08124959511
3.661146856e-18
2.616039751e-18
1.489387332e-17
1.184823816e-16
1.087074118e-15
5.600924567e-15
2.274414322e-14
1.124068397e-13
7.419881115e-13
5.380176581e-12
3.278520409e-11
1.389160559e-10
3.71895826e-10
5.574496527e-10
4.120140852e-10
1.662328522e-10
1.205170664e-10
3.117127874e-10
1.153695851e-09
3.426652185e-09
7.91940281e-09
1.068599595e-08
9.151284843e-09
5.307741189e-09
2.005669491e-09
4.382807777e-10
4.337833488e-11
2.14550294e-12
3.622560446e-12
1.827814411e-11
1.801799514e-11
1.120185628e-11
3.601423362e-12
6.946701405e-13
6.456624415e-14
1.335523968e-15
2.946960746e-35
0.0006621679302
0.02072380981
0.08175603077
6.410267071e-14
4.474227874e-14
2.42759144e-13
1.699941222e-12
9.698481956e-12
3.210339499e-11
8.907357929e-11
2.933138075e-10
1.179588964e-09
4.850791486e-09
1.659732069e-08
4.141681949e-08
7.04050019e-08
7.55802268e-08
5.156035682e-08
2.978789173e-08
3.877831426e-08
9.948946079e-08
2.539215843e-07
5.256898898e-07
7.96993583e-07
7.435319303e-07
4.815938953e-07
2.059266703e-07
5.791840808e-08
9.622798244e-09
1.004518909e-09
1.826567739e-09
1.541140238e-08
6.078025037e-08
7.682240375e-08
4.490780153e-08
1.589831365e-08
3.795099711e-09
4.407470501e-10
1.235031105e-11
9.024541523e-34
0.0006702383681
0.02105933565
0.08225089598
2.40001699e-10