/*--------------------------------*- C++ -*----------------------------------*\
| =========                 |                                                 |
| \\      /  F ield         | OpenFOAM: The Open Source CFD Toolbox           |
|  \\    /   O peration     | Version:  v1912                                 |
|   \\  /    A nd           | Website:  www.openfoam.com                      |
|    \\/     M anipulation  |                                                 |
\*---------------------------------------------------------------------------*/
FoamFile
{
    version     2.0;
    format      ascii;
    class       volScalarField;
    location    "0.9";
    object      iDmdt.gasAndLiquid;
}
// * * * * * * * * * * * * * * * * * * * * * * * * * * * * * * * * * * * * * //

dimensions      [1 -3 -1 0 0 0 0];


internalField   nonuniform List<scalar> 
4800
(
7.721580149e-165
3.542867379e-165
2.334189028e-165
1.748947012e-165
1.387633612e-165
1.139135877e-165
9.533320644e-166
8.058161964e-166
6.842347728e-166
5.815006598e-166
4.929255603e-166
4.159907919e-166
3.305351491e-166
1.436676124e-163
7.435140963e-163
7.571872105e-163
4.300734363e-163
1.820521847e-163
1.643729677e-161
2.257303734e-158
1.384679611e-155
7.230329887e-153
1.235461707e-150
2.063549902e-147
5.375026211e-149
2.253173989e-136
1.923219277e-136
6.361906097e-146
6.000474497e-111
2.186904341e-107
5.500719292e-123
4.40348865e-81
6.094254163e-80
4.698596725e-82
2.470282565e-65
5.02086451e-83
-7.636926703e-53
2.940114866e-70
-0.0005700017304
0.11347098
1.40236452e-162
6.297232889e-163
4.129982643e-163
3.093235297e-163
2.458044916e-163
2.023360136e-163
1.699792342e-163
1.443834257e-163
1.233328893e-163
1.055496786e-163
9.017623192e-164
7.676253506e-164
6.154014204e-164
2.057730219e-161
1.222216416e-160
1.280953077e-160
7.445504477e-161
3.115107219e-161
1.041832649e-159
1.423971254e-156
7.443464154e-154
1.916075178e-151
1.269389638e-149
7.017112741e-146
6.11486901e-149
5.80139433e-136
3.778183061e-133
7.237844331e-146
0
2.764861485e-104
0
3.119688808e-80
4.965882311e-80
3.250894474e-82
2.672692841e-64
4.890818603e-83
-3.257861148e-52
4.507239843e-70
-0.0009054138016
0.2112406481
1.021884416e-160
4.527961129e-161
2.958531233e-161
2.214886384e-161
1.762471442e-161
1.454343259e-161
1.226030589e-161
1.046156595e-161
8.986267141e-162
7.741155019e-162
6.662545681e-162
5.717956606e-162
4.621326463e-162
1.170003912e-159
8.05631737e-159
8.654028554e-159
5.127041279e-159
2.157811494e-159
2.590487614e-158
3.518357956e-155
1.654389914e-152
1.708496474e-150
1.045833076e-149
1.507101029e-143
4.903649127e-144
2.991117305e-151
2.753289303e-128
2.889269346e-128
0
9.831814344e-101
1.918852657e-119
1.180401107e-78
0
3.86834238e-63
1.386810182e-61
2.634005864e-83
-3.073837032e-50
0
-0.001707198031
0.2895262289
4.770516505e-159
2.092478956e-159
1.362813473e-159
1.019834442e-159
8.125725694e-160
6.720961968e-160
5.685222227e-160
4.87306712e-160
4.209346003e-160
3.650286035e-160
3.165417823e-160
2.739760849e-160
2.23306247e-160
4.197392771e-158
3.391588137e-157
3.728690591e-157
2.249847769e-157
9.59895677e-158
4.131211856e-157
5.384094881e-154
2.355569271e-151
7.905556251e-150
5.328982561e-150
5.011866876e-141
1.338287177e-141
1.141658676e-158
3.180329735e-124
2.031040032e-124
0
8.301798827e-98
0
2.775241779e-77
4.890589391e-96
2.31312453e-60
2.580939845e-59
4.678378499e-80
-4.130607874e-49
7.923569768e-66
-0.002341407636
0.3516516541
1.596415986e-157
6.94239656e-158
4.508490551e-158
3.372539932e-158
2.690544016e-158
2.230631645e-158
1.893380947e-158
1.630421872e-158
1.41655657e-158
1.237045326e-158
1.081434429e-158
9.448471926e-159
7.77611673e-159
1.059806007e-156
1.019144083e-155
1.14507478e-155
7.032612261e-156
3.050117381e-156
5.046279444e-156
5.642021089e-153
2.3274852e-150
2.037525391e-149
5.305819496e-150
5.24958755e-140
1.814656537e-140
8.046200166e-159
1.648932737e-121
7.134856794e-122
3.224478703e-141
1.860406078e-94
0
3.723636803e-76
0
3.835700146e-58
1.82527199e-57
4.392456248e-77
1.160733273e-46
2.291314646e-66
-0.002709643681
0.3935647994
4.08785011e-156
1.763940654e-156
1.142473719e-156
8.543297597e-157
6.824462312e-157
5.671545495e-157
4.831321423e-157
4.180745952e-157
3.655169465e-157
3.216731695e-157
2.83820314e-157
2.507932172e-157
2.090203658e-157
2.004406989e-155
2.330914414e-154
2.672165139e-154
1.669586027e-154
7.36811724e-155
5.765884774e-155
4.283592477e-152
1.667899405e-149
3.828383063e-149
6.021619597e-150
5.267083161e-140
5.253235769e-140
0
6.138512931e-120
3.419504783e-120
0
1.755284568e-91
0
3.071954045e-75
3.439529948e-94
1.740429128e-56
5.734958137e-56
1.953736387e-75
4.369112414e-45
7.956163143e-68
-0.002586528801
0.4231750984
8.335066961e-155
3.57034099e-155
2.306641406e-155
1.724436107e-155
1.379404106e-155
1.149337328e-155
9.828868621e-156
8.551728658e-156
7.530255158e-156
6.687825606e-156
5.969330427e-156
5.354986455e-156
4.546786417e-156
2.944750175e-154
4.216369301e-153
4.922282384e-153
3.127542514e-153
1.405045142e-153
7.162254198e-154
2.431114046e-151
8.889094582e-149
1.637078883e-148
1.796336796e-146
2.178166634e-146
3.397240589e-137
5.587862294e-153
2.368754679e-119
2.795234511e-117
0
3.198378236e-89
0
1.54525066e-74
0
2.385492277e-55
8.959107614e-55
0
3.670787361e-44
1.806228005e-65
-0.002091944807
0.444770435
1.390059762e-153
5.911896005e-154
3.810396996e-154
2.848340084e-154
2.282124561e-154
1.90717096e-154
1.638389427e-154
1.43479235e-154
1.274633375e-154
1.145575862e-154
1.039075216e-154
9.533544241e-155
8.343346856e-155
3.437451227e-153
6.182806663e-152
7.33180895e-152
4.73600543e-152
2.166967391e-152
9.349129591e-153
1.049602592e-150
3.553080531e-148
3.561287619e-147
3.429231573e-145
2.179612489e-152
1.554155958e-134
4.611289096e-134
0
6.246018562e-113
0
2.268821511e-87
0
5.025160178e-74
7.194145548e-93
1.45180258e-54
7.550518033e-54
4.714021096e-73
5.123764511e-44
6.60046946e-64
-0.00161627862
0.4604060337
1.933229018e-152
8.163641936e-153
5.250416975e-153
3.92561964e-153
3.151949428e-153
2.644097888e-153
2.284742282e-153
2.018043521e-153
1.814758216e-153
1.659512842e-153
1.54326906e-153
1.468401838e-153
1.352310358e-153
3.234945585e-152
7.469768396e-151
8.966608365e-151
5.885850226e-151
2.745251045e-151
1.140437216e-151
3.481934571e-150
9.83849682e-148
9.081338046e-146
7.398285936e-142
2.090287819e-152
2.364040502e-132
7.475017359e-132
5.659968271e-151
1.152457417e-108
2.513972321e-127
1.206739034e-85
0
1.956129961e-73
0
5.177231652e-54
3.45558319e-53
0
5.965973076e-44
1.698956428e-63
-0.001271778152
0.4723219795
2.276724613e-151
9.545419755e-152
6.1283946e-152
4.586126412e-152
3.694080699e-152
3.115851562e-152
2.715162279e-152
2.428829918e-152
2.225615577e-152
2.092902963e-152
2.028870207e-152
2.049301855e-152
2.047868965e-152
2.484741385e-151
7.512850389e-150
9.085893593e-150
6.0535749e-150
2.882646825e-150
1.213573724e-150
9.001500153e-150
9.017720416e-150
6.294786055e-141
8.460973738e-140
1.861104931e-152
1.11126294e-130
3.384380482e-130
0
4.763926902e-105
0
4.273546964e-84
1.54063085e-102
1.213335772e-72
2.347231296e-91
1.302656308e-53
5.84239551e-53
3.643612061e-72
6.738784695e-44
0
-0.0007855140803
0.4818405639
2.302681735e-150
9.584554114e-151
6.147993733e-151
4.61161256e-151
3.735056903e-151
3.178575008e-151
2.807863444e-151
2.564529535e-151
2.42538286e-151
2.391759806e-151
2.483230172e-151
2.746062401e-151
3.073102107e-151
1.605614447e-150
6.321994889e-149
7.659592881e-149
5.165139807e-149
2.518347273e-149
1.100105636e-149
1.908571499e-149
8.961383395e-150
1.284086417e-136
5.697996641e-138
2.799755691e-152
2.195344875e-129
6.54735426e-129
0
2.655835772e-102
0
7.759046317e-83
1.139171299e-101
2.152194309e-72
0
3.149033139e-53
5.871749799e-53
1.90794165e-71
7.25552764e-44
0
-0.0002051752781
0.4898131424
2.032973033e-149
8.401104227e-150
5.394170736e-150
4.069153016e-150
3.330344546e-150
2.879601521e-150
2.60492472e-150
2.466397801e-150
2.46284108e-150
2.624940315e-150
3.010508024e-150
3.734646324e-150
4.750070648e-150
1.00758316e-149
4.438492465e-148
5.362072068e-148
3.644301729e-148
1.831444026e-148
8.456912974e-149
3.591982005e-149
8.914529173e-150
4.043535881e-134
3.163456067e-135
1.910734684e-153
3.810699802e-125
1.516665905e-126
0
3.836201508e-100
8.359107818e-119
5.416268646e-82
0
2.144612684e-72
2.404702387e-91
3.230565503e-53
1.780072521e-53
0
6.329393318e-45
0
0.0004452103188
0.4967394449
1.603955822e-148
6.583373899e-149
4.249807997e-149
3.248800511e-149
2.714775055e-149
2.416481268e-149
2.278664085e-149
2.294128025e-149
2.497822473e-149
2.955969503e-149
3.786271837e-149
5.319048497e-149
7.590512275e-149
9.257652857e-149
2.560940779e-147
3.079941195e-147
2.109690051e-147
1.114236114e-147
5.594110195e-148
3.534543027e-149
1.614361547e-147
4.211650238e-133
2.134534229e-131
0
8.63004584e-120
1.558793446e-121
0
3.140722169e-98
0
7.28121822e-82
0
2.135370073e-72
0
3.203401236e-53
0
1.862835179e-47
0
1.081960301e-05
0.001130790008
0.5029498545
1.173599472e-147
4.792956904e-148
3.142139825e-148
2.472143143e-148
2.146099258e-148
2.00723557e-148
2.028611842e-148
2.243993547e-148
2.712161446e-148
3.50792939e-148
4.98517766e-148
8.063660569e-148
1.207073995e-147
1.354502168e-147
1.190379987e-146
1.417903518e-146
1.001199814e-146
5.869592289e-147
3.372187424e-147
1.217225003e-154
1.516103446e-136
2.954354413e-150
1.74609792e-126
5.03245297e-143
2.443290326e-116
8.124882514e-118
0
1.990973081e-96
7.320460429e-115
7.241038968e-82
2.930109408e-101
2.121337196e-72
0
3.17823535e-53
0
1.029558455e-46
0
3.972793076e-05
0.001826626598
0.5086346789
8.429993892e-147
3.441229182e-147
2.329731377e-147
1.921319625e-147
1.766569048e-147
1.799492495e-147
2.030233387e-147
2.473921428e-147
3.135963907e-147
4.171334824e-147
7.273748075e-147
1.279244014e-146
1.688584777e-146
1.867225463e-146
4.77725522e-146
5.506618623e-146
4.359039218e-146
3.073818326e-146
2.045387569e-146
4.02950392e-158
8.565069628e-132
9.477012548e-150
4.556680247e-123
2.561202009e-124
7.871112167e-115
4.678524808e-115
0
5.007565238e-95
0
7.187596771e-82
0
2.106549646e-72
9.248861684e-92
3.154279793e-53
0
1.179621351e-46
0
8.102308302e-05
0.002498758801
0.5138909154
6.413567605e-146
2.609748578e-146
1.825982903e-146
1.576229375e-146
1.615944276e-146
1.989966753e-146
2.459109706e-146
2.891844511e-146
3.355872156e-146
5.050295178e-146
1.448801206e-145
1.743052595e-145
1.683654158e-145
2.11432071e-145
3.908239205e-145
5.714392559e-145
5.258193082e-145
3.468940318e-145
1.890974938e-145
5.365630054e-159
3.442896378e-128
0
3.684737335e-121
1.10546871e-122
0
3.443508304e-110
0
3.987834494e-94
6.170983379e-113
7.147780616e-82
8.479359248e-101
2.090638114e-72
2.531016716e-91
2.57497665e-53
0
1.159791297e-46
7.847201818e-70
0.0001262603235
0.003147656204
0.5188339466
5.351525148e-145
2.068541227e-145
1.426567197e-145
1.365739726e-145
2.09127777e-145
3.211239805e-145
3.082442512e-145
2.762892878e-145
3.196728798e-145
1.313890255e-144
1.477100033e-143
1.778482546e-142
1.55974219e-141
8.316612128e-141
2.513349374e-140
4.31388951e-140
3.894925218e-140
2.256842008e-140
9.7518703e-141
9.711873512e-159
6.146899425e-126
6.771930844e-144
1.923834758e-120
4.180838777e-119
1.10848749e-137
3.493085628e-105
0
1.204939792e-93
0
7.108638879e-82
0
1.969826782e-72
2.982671444e-91
1.397135726e-53
1.731303518e-72
1.140626532e-46
1.265377794e-67
0.0001701305596
0.003785149589
0.5235615125
4.213708553e-144
1.452026662e-144
1.106962839e-144
2.330026277e-144
9.807977588e-144
4.344482216e-143
2.035411716e-142
1.226042916e-141
1.017990963e-140
1.121293221e-139
1.436984094e-138
1.726241999e-137
1.493977355e-136
7.84653693e-136
2.33083052e-135
3.937525468e-135
3.40230011e-135
1.899174749e-135
8.020388175e-136
0
8.449555618e-125
1.25285296e-125
4.074176451e-139
3.190418657e-114
0
3.326092736e-100
0
1.71114711e-93
1.10105003e-112
7.028724019e-82
0
1.426409769e-72
3.682565608e-92
4.091750451e-54
2.559561239e-73
9.806472843e-47
4.653795759e-68
0.0002104507009
0.004412711155
0.5281438561
7.836634408e-141
8.404545882e-141
2.955791488e-140
1.602625499e-139
8.501785548e-139
3.905297426e-138
1.83548316e-137
1.105614164e-136
9.196151477e-136
1.016055559e-134
1.304661815e-133
1.557558044e-132
1.329967851e-131
6.883441169e-131
2.013950847e-130
3.342741876e-130
2.760127519e-130
1.482233164e-130
6.146278556e-131
1.847278127e-144
1.690504217e-124
2.311925944e-122
0
6.33048514e-110
1.566030617e-138
4.374193347e-97
0
1.737438077e-93
0
6.057362435e-82
0
6.321628647e-73
6.274553363e-92
4.944568629e-55
7.468293098e-74
5.293517952e-47
6.427314523e-69
0.0002467269506
0.005029339544
0.5326121501
5.718177719e-136
6.223335061e-136
2.310292427e-135
1.298780603e-134
7.068390247e-134
3.281553888e-133
1.545024284e-132
9.304149164e-132
7.74881597e-131
8.586973644e-130
1.104541934e-128
1.309065735e-127
1.103015621e-126
5.628648009e-126
1.622995758e-125
2.642896814e-125
2.084496178e-125
1.0751716e-125
4.372404831e-126
2.81384811e-126
4.458485399e-135
1.340006693e-118
8.919720625e-138
3.502174708e-107
1.145122017e-108
1.026330775e-95
2.525777976e-96
1.734905681e-93
0
3.688421815e-82
0
1.326341046e-73
8.547098623e-93
1.763424512e-56
0
1.311783816e-47
6.262442902e-71
0.0002791786079
0.005626737126
0.5369545651
3.929685996e-131
4.336662216e-131
1.695170707e-130
9.857581799e-130
5.497882726e-129
2.578998269e-128
1.216200195e-127
7.319543755e-127
6.100971557e-126
6.782406004e-125
8.734988001e-124
1.026685481e-122
8.541073194e-122
4.299177466e-121
1.222400725e-120
1.948442766e-120
1.4685141e-120
7.261655826e-121
2.90862377e-121
2.068769196e-121
1.634114339e-135
5.607465487e-116
3.138800534e-134
9.145469981e-106
2.408695353e-107
8.879039764e-115
2.399722596e-91
3.15342869e-92
7.824750461e-119
2.087448207e-83
0
8.987793367e-75
2.158010055e-93
1.308732037e-58
0
1.042952179e-48
4.733963711e-72
0.0003118647499
0.006214539366
0.5411721245
2.549192861e-126
2.848861148e-126
1.169248894e-125
7.016178757e-125
4.007103489e-124
1.899013664e-123
8.96720341e-123
5.390730028e-122
4.495619798e-121
5.015655031e-120
6.461388558e-119
7.526574519e-118
6.187158436e-117
3.072619427e-116
8.620094167e-116
1.340556923e-115
9.666856458e-116
4.573719342e-116
1.817971518e-116
1.407843326e-116
1.620239525e-116
4.298597498e-114
1.775487164e-129
2.375057135e-105
5.906942895e-105
3.26653133e-119
1.910665362e-86
2.072581353e-87
1.176650305e-89
0
1.09258655e-74
2.997563869e-75
0
1.472166015e-61
0
1.794883794e-50
2.565695799e-69
0.0003423929403
0.006795544685
0.5452995364
1.564103095e-121
1.766945945e-121
7.589349681e-121
4.688322254e-120
2.740841887e-119
1.312106221e-118
6.200761489e-118
3.721182985e-117
3.104959442e-116
3.477853825e-115
4.475406051e-114
5.165903606e-113
4.200206324e-112
2.057686409e-111
5.699911732e-111
8.611947815e-111
5.95354123e-111
2.690109978e-111
1.070755672e-111
9.132549072e-112
1.502208052e-111
2.300936137e-111
2.050253694e-111
8.16908347e-124
2.122573684e-100
0
1.296027484e-81
1.073833157e-82
4.223630682e-85
5.449018185e-104
6.347979607e-73
2.927324315e-75
7.403458363e-67
1.02783975e-65
0
4.643182947e-53
6.543974417e-78
0.000396159457
0.007352062162
0.5493492946
9.092210619e-117
1.035930181e-116
4.639186829e-116
2.944326787e-115
1.761875786e-114
8.517419842e-114
4.025228018e-113
2.410104405e-112
2.012861547e-111
2.263657423e-110
2.905185663e-109
3.324933753e-108
2.675883969e-107
1.292573144e-106
3.538717242e-106
5.167547804e-106
3.433436158e-106
1.479242361e-106
5.962924512e-107
5.62987509e-107
9.850641004e-107
1.438376847e-106
1.373925721e-106
5.48371581e-125
7.646708627e-96
3.495693353e-114
2.571054703e-78
2.278036952e-79
1.28626914e-81
6.037085517e-84
2.327876056e-72
4.806391024e-72
7.409575274e-67
1.153032389e-79
1.667385977e-56
5.679540043e-56
1.015833133e-74
0.0004540704891
0.007889623678
0.5533317908
5.013712408e-112
5.745935334e-112
2.672218116e-111
1.739742429e-110
1.065755925e-109
5.199200016e-109
2.454782424e-108
1.466044967e-107
1.226390592e-106
1.383981329e-105
1.769062883e-104
2.009928904e-103
1.601510853e-102
7.622119972e-102
2.065146454e-101
2.897049805e-101
1.855101286e-101
7.611890009e-102
3.150526198e-102
3.291185399e-102
6.099764399e-102
8.933823862e-102
8.615689923e-102
0
5.705211532e-92
8.706516791e-112
1.814051132e-76
3.26898125e-77
6.190807797e-79
1.608089387e-81
1.313865763e-90
6.180888355e-69
6.294214717e-67
1.776620128e-69
1.671189566e-56
1.583078425e-56
1.359938018e-78
0.0005139439995
0.008406874718
0.5572586983
2.624759808e-107
3.016690569e-107
1.451186086e-106
9.683238904e-106
6.072567392e-105
2.986096393e-104
1.407281755e-103
8.38427714e-103
7.030260795e-102
7.951115933e-101
1.011567931e-99
1.142703185e-98
9.009982492e-98
4.221924832e-97
1.134122891e-96
1.517949727e-96
9.39253655e-97
3.668263288e-97
1.582212499e-97
1.828805224e-97
3.569563801e-97
5.254346315e-97
5.143700189e-97
0
2.648554706e-89
1.159905369e-106
8.9797595e-76
2.145520134e-74
4.659781401e-75
9.039838452e-77
1.034006317e-95
1.778099981e-64
9.727670251e-65
2.869563406e-83
1.024562162e-56
7.254180889e-57
1.215586908e-79
0.0005753436031
0.008897724258
0.5611026769
1.305124276e-102
1.499474393e-102
7.43469859e-102
5.082808424e-101
3.261387037e-100
1.614178265e-99
7.588779624e-99
4.512928615e-98
3.794566389e-97
4.293201818e-96
5.438437984e-95
6.116173005e-94
4.765963939e-93
2.197988297e-92
5.867191091e-92
7.43681595e-92
4.456327175e-92
1.65651783e-92
7.551457755e-93
9.686188248e-93
1.974463694e-92
2.931789055e-92
2.924457149e-92
6.725891324e-106
1.412768402e-87
3.496830248e-88
2.210861546e-94
1.336897767e-69
2.743758669e-70
4.763347405e-72
1.030488696e-90
2.11669868e-61
1.470714886e-61
6.381057632e-80
1.647760381e-55
7.025027186e-56
7.787707846e-77
0.0006597412904
0.00935499901
0.5648022741
6.16519748e-98
7.057237768e-98
3.596229539e-97
2.518753772e-96
1.651410445e-95
8.214494224e-95
3.852311685e-94
2.288620352e-93
1.928991632e-92
2.179134337e-91
2.752910926e-90
3.083396192e-89
2.370333781e-88
1.076344882e-87
2.861936278e-87
3.408988106e-87
1.98107761e-87
7.012724254e-88
3.428667988e-88
4.887332194e-88
1.033554838e-87
1.555098114e-87
1.587000348e-87
9.650847147e-88
2.318671493e-86
1.209572846e-86
1.432497933e-105
7.789663398e-65
1.443420103e-65
2.074543845e-67
0
1.999993077e-59
2.664527982e-59
0
1.498175634e-54
7.346533619e-55
0
0.0007288433236
0.009843316455
0.5683697929
2.767468148e-93
3.145638635e-93
1.644071605e-92
1.179154796e-91
7.883036462e-91
3.936763972e-90
1.842636835e-89
1.094375736e-88
9.234596159e-88
1.040289666e-86
1.313834931e-85
1.463958486e-84
1.108402498e-83
4.962844037e-83
1.316979808e-82
1.46341368e-82
8.25018258e-83
2.784133998e-83
1.481676436e-83
2.348224696e-83
5.127760549e-83
7.859565369e-83
8.228031708e-83
5.301030971e-83
2.182921938e-83
5.337701798e-84
0
7.312529056e-61
1.257492254e-61
1.906371492e-63
2.44284154e-82
2.428557795e-58
5.697054896e-58
5.099559404e-77
1.501282456e-54
1.572576697e-54
1.249098431e-73
0.0007979900295
0.01031293254
0.5718430841
1.181032911e-88
1.3285452e-88
7.111492161e-88
5.216017506e-87
3.546719014e-86
1.777859089e-85
8.313325907e-85
4.936402275e-84
4.161484935e-83
4.675316179e-82
5.917706691e-81
6.541822e-80
4.874445482e-79
2.157309441e-78
5.71515338e-78
5.891634974e-78
3.216872445e-78
1.036986499e-78
6.094452746e-79
1.074285543e-78
2.415453579e-78
3.792312935e-78
4.077343824e-78
2.636437259e-78
1.082781824e-78
2.683671724e-79
8.513132596e-98
2.60990655e-58
5.004846231e-59
1.156538952e-60
1.6484379e-78
7.341584573e-58
8.526236825e-58
1.003905589e-63
1.149892839e-54
6.444759798e-53
1.439066853e-74
0.0008666316797
0.01077352711
0.5752476071
4.795291416e-84
5.321182582e-84
2.913104457e-83
2.179347186e-82
1.503977039e-81
7.573164722e-81
3.540934979e-80
2.100079558e-79
1.76465807e-78
1.980965564e-77
2.516244319e-76
2.748888378e-75
2.017474843e-74
8.852769313e-74
2.333914177e-73
2.231217803e-73
1.172116536e-73
3.62534874e-74
2.385838028e-74
4.681043188e-74
1.082208649e-73
1.749244933e-73
1.930679333e-73
1.253217142e-73
5.18676142e-74
1.338950391e-74
8.01804968e-93
5.729404237e-57
2.331754949e-57
1.854959315e-58
1.809390321e-60
8.443166336e-58
8.476470337e-58
1.396641142e-55
1.374249166e-55
2.036545873e-49
6.960850131e-71
0.0009336774445
0.01122496918
0.5786088969
1.854089832e-79
2.023363814e-79
1.130466058e-78
8.594085418e-78
6.013577236e-77
3.046538271e-76
1.424535928e-75
8.42045045e-75
7.04170829e-74
7.926388926e-73
1.009365645e-71
1.085461001e-70
7.868438955e-70
3.433161016e-69
8.939587266e-69
7.969280432e-69
3.985577347e-69
1.190647329e-69
8.890768232e-70
1.943731e-69
4.618001085e-69
7.7157131e-69
8.726057918e-69
5.689410391e-69
2.380918479e-69
6.482283614e-70
2.042403345e-84
1.41323667e-56
1.78227781e-54
6.788961203e-55
4.233627519e-56
1.27907723e-57
8.444575722e-58
2.975847612e-54
1.389922111e-55
1.245322776e-46
0
0.000995907631
0.01166048311
0.5819563503
6.831002259e-75
7.311115145e-75
4.15400225e-74
3.196168388e-73
2.269767193e-72
1.15872338e-71
5.411777775e-71
3.17890916e-70
2.646389036e-69
2.999294197e-68
3.813732602e-67
4.028038815e-66
2.896330334e-65
1.258641435e-64
3.204049382e-64
2.682291388e-64
1.265008275e-64
3.680596436e-65
3.155414089e-65
7.694342761e-65
1.877809425e-64
3.251643501e-64
3.757910654e-64
2.463968943e-64
1.047048259e-64
3.04485922e-65
5.405897303e-66
0
7.645325012e-50
2.947937001e-50
1.916458411e-51
1.252013149e-53
3.000070909e-55
2.790258096e-53
1.368295135e-55
1.893429782e-44
8.159459643e-66
0.001050453037
0.01207026244
0.5852731806
2.397800557e-70
2.511106957e-70
1.443577893e-69
1.120789959e-68
8.10037916e-68
4.169275109e-67
1.939421705e-66
1.129077123e-65
9.382379642e-65
1.073848358e-63
1.354377414e-62
1.406373485e-61
1.007628541e-60
4.358705747e-60
1.071847938e-59
8.489097147e-60
3.745866759e-60
1.074889277e-60
1.067226837e-60
2.903209672e-60
7.271485939e-60
1.306832205e-59
1.539179128e-59
1.01702418e-59
4.413398878e-60
1.341793939e-60
2.651736953e-61
0
3.189057392e-45
1.205997632e-45
7.784393681e-47
5.358319413e-49
4.36054659e-52
1.603712949e-52
1.383817973e-55
9.842810981e-43
0
0.001134633146
0.0124297577
0.5884643571
8.008592287e-66
8.191742664e-66
4.736543009e-65
3.708839173e-64
2.73823154e-63
1.418699282e-62
6.546122948e-62
3.773021198e-61
3.145006093e-60
3.634789734e-59
4.512347073e-58
4.63060732e-57
3.315211441e-56
1.422883787e-55
3.338966278e-55
2.517910408e-55
1.033340638e-55
2.983252828e-56
3.443469085e-56
1.042637703e-55
2.676518017e-55
4.997552923e-55
5.988635902e-55
4.00121213e-55
1.785930435e-55
5.739576442e-56
1.233860814e-56
1.60757372e-75
9.928188476e-41
3.99413653e-41
2.734496187e-42
1.974946424e-44
1.787070854e-47
7.623124897e-51
1.399336531e-55
2.258698766e-41
0
0.001253561699
0.0127598401
0.5915041547
2.539152234e-61
2.533216505e-61
1.465446216e-60
1.160507439e-59
8.777581132e-59
4.55830375e-58
2.077885488e-57
1.187860115e-56
9.987509323e-56
1.160328829e-54
1.409504566e-53
1.442039634e-52
1.030728356e-51
4.365455772e-51
9.670008718e-51
6.973439896e-51
2.648726243e-51
7.873189875e-52
1.071303568e-51
3.549343984e-51
9.339843858e-51
1.815659712e-50
2.214135204e-50
1.503141002e-50
6.96318677e-51
2.390730213e-51
5.648367357e-52
4.340040598e-70
1.460840422e-37
6.486654258e-38
6.253090639e-39
8.154853784e-41
1.310808489e-43
5.801975232e-47
1.414992142e-55
2.700879506e-40
0
0.001311835596
0.01315546551
0.5944305305
7.621110055e-57
7.406696532e-57
4.275214045e-56
3.443414272e-55
2.667635895e-54
1.379573031e-53
6.199627542e-53
3.532877228e-52
3.007274881e-51
3.480683889e-50
4.134499607e-49
4.257748347e-48
3.020968494e-47
1.254811951e-46
2.603051883e-46
1.79784401e-46
6.286689812e-47
1.98183405e-47
3.213330442e-47
1.141488728e-46
3.082019837e-46
6.268697016e-46
7.797884628e-46
5.41257876e-46
2.628820929e-46
9.724754002e-47
2.542246476e-47
0
1.365097637e-35
6.981576058e-36
1.080378862e-36
2.943631608e-38
1.014858021e-40
6.386611099e-44
1.41012601e-55
1.853036932e-39
6.671837464e-60
0.001367225062
0.01353812949
0.5972586387
2.161275649e-52
2.04309925e-52
1.17833593e-51
9.714425833e-51
7.670808151e-50
3.923378244e-49
1.741131685e-48
9.959139014e-48
8.575140232e-47
9.772577793e-46
1.143658052e-44
1.192660714e-43
8.31415439e-43
3.373078357e-42
6.525766088e-42
4.308771656e-42
1.376316248e-42
4.775455991e-43
9.248418058e-43
3.454860513e-42
9.607264266e-42
2.063075956e-41
2.627485124e-41
1.87763372e-41
9.65501477e-42
3.864607645e-42
1.121708823e-42
2.459268876e-61
1.286902653e-34
1.09471434e-34
3.75253695e-35
2.783714726e-36
2.772177444e-38
3.31661728e-41
1.426072248e-55
8.319147785e-39
0
0.001415332712
0.01391673496
0.6000025621
5.792704076e-48
5.315114646e-48
3.080213139e-47
2.608663559e-46
2.079191828e-45
1.047430573e-44
4.619671673e-44
2.667458638e-43
2.307606194e-42
2.561366537e-41
3.001002744e-40
3.162846594e-39
2.138159829e-38
8.489641973e-38
1.530341848e-37
9.608285246e-38
2.769333555e-38
1.102733524e-38
2.536422532e-38
9.805664017e-38
2.835332059e-37
6.508797276e-37
8.511066817e-37
6.302912356e-37
3.456273428e-37
1.495031896e-37
4.817946303e-38
0
1.99662518e-34
3.404929788e-33
1.727425546e-33
2.842120138e-34
9.869468286e-36
4.976035928e-38
5.133096994e-41
2.672087895e-38
5.080133049e-59
0.001455896443
0.01429480971
0.6026806229
1.472170064e-43
1.307387866e-43
7.671505058e-43
6.657878776e-42
5.288584283e-41
2.630542955e-40
1.163767377e-39
6.787353432e-39
5.830332572e-38
6.273282469e-37
7.508684781e-36
7.902736764e-35
5.11509941e-34
2.011296397e-33
3.376815806e-33
1.998545289e-33
5.107373425e-34
2.434051031e-34
6.576534757e-34
2.605470157e-33
7.97904385e-33
1.980722104e-32
2.657456739e-32
2.050104719e-32
1.202662204e-32
5.586324468e-33
1.891214694e-33
3.160346186e-34
7.240934945e-48
9.27573067e-29
4.410529912e-29
6.900583303e-30
2.337245278e-31
1.206484616e-33
1.280451677e-36
5.677019855e-38
2.719093522e-56
0.001481015111
0.01465843361
0.6053116495
3.567993947e-39
3.057121163e-39
1.826081488e-38
1.60800719e-37
1.258433683e-36
6.250497899e-36
2.794154073e-35
1.634871117e-34
1.374832838e-33
1.445885724e-32
1.793505344e-31
1.848265373e-30
1.136462555e-29
4.520346527e-29
7.042415659e-29
3.88235336e-29
8.614572226e-30
5.103735421e-30
1.600114934e-29
6.500916681e-29
2.165892317e-28
5.83191308e-28
7.983599595e-28
6.442250644e-28
4.039259157e-28
1.992959276e-28
7.156139753e-29
1.329393727e-29
0
5.366948379e-25
3.939089891e-25
1.212766449e-25
9.484576345e-27
1.113371602e-28
1.869651123e-31
8.331795384e-35
0
0.001505093596
0.01501272534
0.6079140803
8.292149151e-35
6.837604897e-35
4.151868344e-34
3.651333989e-33
2.806354068e-32
1.416097309e-31
6.392942514e-31
3.704303993e-30
3.008599714e-29
3.175354589e-28
4.069895651e-27
4.016507717e-26
2.363761478e-25
9.691839433e-25
1.387594293e-24
7.011522575e-25
1.324699705e-25
1.007406797e-25
3.629858397e-25
1.540851578e-24
5.735327086e-24
1.656391675e-23
2.29327024e-23
1.944529122e-23
1.297852529e-23
6.706566962e-24
2.62581979e-24
5.507172854e-25
5.008083203e-41
1.914557537e-22
2.372056082e-22
1.411089024e-22
2.755473596e-23
9.638845999e-25
4.442686505e-27
2.957915493e-30
0
0.001524795841
0.01534434838
0.6104852937
1.851180301e-30
1.467695814e-30
8.973167616e-30
7.738367754e-29
5.919918576e-28
3.07380937e-27
1.386034382e-26
7.834654668e-26
6.086756029e-25
6.72753546e-24
8.694447994e-23
8.055964114e-22
4.685820986e-21
1.972892601e-20
2.563042689e-20
1.159444174e-20
1.846512378e-21
1.851454926e-21
7.642376336e-21
3.529846702e-20
1.483158882e-19
4.489036437e-19
6.237971966e-19
5.599502679e-19
3.953139876e-19
2.102896907e-19
9.530485843e-20
2.028174053e-20
8.916796338e-22
8.485686302e-21
2.028663918e-20
1.629365336e-20
6.068476179e-21
5.556930133e-22
8.069086329e-24
1.221704337e-26
3.504668865e-45
0.001484533173
0.01564033108
0.613059659
3.950601004e-26
3.014995056e-26
1.827982521e-25
1.519545509e-24
1.199600646e-23
6.379955809e-23
2.822394136e-22
1.5363342e-21
1.148003688e-20
1.375562491e-19
1.727072312e-18
1.48092406e-17
9.085920042e-17
3.763238832e-16
4.391620361e-16
1.710135169e-16
2.3400829e-17
3.139832755e-17
1.515447323e-16
7.90923817e-16
3.69536803e-15
1.141929551e-14
1.590257792e-14
1.529341171e-14
1.129712754e-14
6.05727364e-15
1.792436257e-15
1.845396933e-16
4.918687803e-18
3.870542873e-19
5.420332037e-19
5.101205562e-19
2.900869736e-19
5.400177801e-20
2.09842328e-21
8.953410432e-24
3.62933906e-42
0.001556645029
0.01588189842
0.6154910622
7.983405832e-22
5.881244969e-22
3.47921063e-21
2.769602503e-20
2.355414465e-19
1.252038451e-18
5.337758285e-18
2.773045551e-17
2.095691627e-16
2.68350009e-15
3.160795214e-14
2.48472772e-13
1.136524202e-12
2.717981771e-12
2.388685632e-12
8.482738717e-13
2.561330175e-13
5.006280923e-13
2.567848781e-12
1.072310819e-11
3.663899588e-11
7.495225652e-11
8.256398285e-11
6.455356077e-11
3.46572272e-11
1.174092e-11
1.84943787e-12
9.995514918e-14
2.431531576e-15
2.249894079e-15
1.454182771e-15
8.170482435e-16
2.821562626e-16
5.188196575e-17
4.473938718e-18
8.009753538e-20
0
0.00148208499
0.01609077782
0.617876977
1.503954579e-17
1.074744319e-17
6.117749696e-17
4.864608764e-16
4.460089597e-15
2.295649192e-14
9.30866406e-14
4.590694761e-13
3.020422643e-12
2.179531272e-11
1.319053733e-10
5.538375202e-10
1.466251602e-09
2.170390211e-09
1.583135704e-09
6.305834736e-10
4.51697541e-10
1.155531775e-09
4.236736301e-09
1.250238168e-08
2.885541242e-08
3.918480525e-08
3.40361066e-08
2.011552214e-08
7.746000019e-09
1.719578693e-09
1.724140381e-10
8.588687805e-12
1.470218008e-11
7.391404058e-11
7.427376414e-11
4.590113057e-11
1.506771718e-11
2.833094773e-12
2.708031653e-13
5.597737576e-15
1.167667275e-34
0.001510131416
0.01635101889
0.6199891974
2.608061191e-13
1.821502343e-13
9.872360759e-13
6.897120134e-12
3.921513633e-11
1.292428389e-10
3.565574519e-10
1.164873099e-09
4.631613004e-09
1.873905245e-08
6.268983422e-08
1.51978944e-07
2.501768309e-07
2.607674131e-07
1.7343116e-07
9.777679625e-08
1.238182005e-07
3.06721715e-07
7.473157492e-07
1.464045854e-06
2.151689981e-06
2.075487184e-06
1.440125431e-06
6.625779311e-07
1.976265422e-07
3.428135261e-08
3.690439624e-09
6.821896555e-09
5.809601653e-08
2.243577533e-07
2.907151204e-07
1.746987748e-07
6.673882063e-08
1.57158781e-08
1.798570232e-09
5.21310533e-11
3.628520643e-33
0.001555243099
0.01642340024
0.6222723151
9.50220277e-10
6.988035032e-10
2.55893368e-09
1.085484471e-08