/*--------------------------------*- C++ -*----------------------------------*\
| =========                 |                                                 |
| \\      /  F ield         | OpenFOAM: The Open Source CFD Toolbox           |
|  \\    /   O peration     | Version:  v1912                                 |
|   \\  /    A nd           | Website:  www.openfoam.com                      |
|    \\/     M anipulation  |                                                 |
\*---------------------------------------------------------------------------*/
FoamFile
{
    version     2.0;
    format      ascii;
    class       volScalarField;
    location    "0.9";
    object      k.gas_0;
}
// * * * * * * * * * * * * * * * * * * * * * * * * * * * * * * * * * * * * * //

dimensions      [0 2 -2 0 0 0 0];


internalField   nonuniform List<scalar> 
4800
(
4.297884585e-07
6.003091339e-07
6.98353087e-07
7.706674657e-07
8.332966662e-07
8.932141428e-07
9.544401292e-07
1.019694259e-06
1.091027794e-06
1.170114796e-06
1.258399916e-06
1.357177636e-06
1.467635032e-06
1.590874221e-06
1.727923753e-06
1.879744935e-06
2.04723747e-06
2.231247984e-06
2.432584454e-06
2.652039213e-06
2.890422876e-06
3.14861132e-06
3.427607705e-06
3.728621505e-06
4.05316721e-06
4.403186395e-06
4.781197736e-06
5.190480004e-06
5.635317894e-06
6.121244874e-06
6.655673892e-06
7.248077286e-06
7.90694508e-06
8.684561202e-06
9.412284303e-06
1.087412034e-05
1.08952942e-05
1.500541878e-05
7.787601076e-06
3.025687317e-05
1.047603474e-06
1.470787859e-06
1.713481013e-06
1.882370413e-06
2.012063921e-06
2.116889755e-06
2.204425378e-06
2.279213826e-06
2.344206468e-06
2.401436913e-06
2.452372723e-06
2.49811445e-06
2.539515316e-06
2.577256868e-06
2.611898762e-06
2.643912593e-06
2.673705516e-06
2.701637088e-06
2.728031505e-06
2.753186627e-06
2.777380776e-06
2.800877977e-06
2.823932161e-06
2.84679071e-06
2.869697659e-06
2.892896606e-06
2.916634268e-06
2.941159525e-06
2.966754713e-06
2.993543598e-06
3.022625676e-06
3.050226505e-06
3.093863217e-06
3.089218135e-06
3.246906195e-06
2.947195958e-06
3.806003104e-06
2.278262436e-06
3.550648843e-06
6.183848425e-05
9.897019564e-07
1.387602936e-06
1.616032552e-06
1.775254908e-06
1.897867307e-06
1.997336959e-06
2.080769951e-06
2.152417003e-06
2.215029779e-06
2.270494707e-06
2.320162917e-06
2.365036392e-06
2.405879718e-06
2.44329053e-06
2.47774575e-06
2.509632936e-06
2.539272147e-06
2.566931544e-06
2.592838756e-06
2.617189292e-06
2.640152886e-06
2.661878336e-06
2.68249729e-06
2.702127256e-06
2.720874087e-06
2.738834141e-06
2.756096519e-06
2.772743449e-06
2.788865167e-06
2.804471922e-06
2.820092157e-06
2.833265116e-06
2.85723846e-06
2.831593516e-06
3.003984713e-06
2.491124685e-06
3.969781433e-06
6.151601086e-07
7.906830102e-06
8.036944687e-05
9.947475861e-07
1.395359637e-06
1.625401992e-06
1.785717693e-06
1.90912785e-06
2.009196131e-06
2.093082168e-06
2.165070055e-06
2.227934054e-06
2.283576742e-06
2.333361371e-06
2.37829943e-06
2.419163236e-06
2.456556918e-06
2.490963003e-06
2.522773991e-06
2.552314378e-06
2.579856353e-06
2.605631228e-06
2.629837899e-06
2.652649223e-06
2.674216897e-06
2.694675284e-06
2.714144492e-06
2.732732947e-06
2.750539735e-06
2.767656829e-06
2.784171376e-06
2.800168164e-06
2.81573206e-06
2.830986633e-06
2.845644024e-06
2.863258912e-06
2.860160512e-06
2.969012883e-06
2.608312934e-06
3.635882151e-06
2.516805935e-06
1.071152183e-05
9.594527023e-05
9.941317586e-07
1.394360829e-06
1.624222776e-06
1.784417823e-06
1.907746761e-06
2.007760845e-06
2.091612326e-06
2.16358056e-06
2.226436652e-06
2.282080783e-06
2.331874306e-06
2.37682713e-06
2.417710193e-06
2.455126385e-06
2.489557072e-06
2.52139366e-06
2.550959587e-06
2.578526011e-06
2.604323225e-06
2.628549106e-06
2.651375476e-06
2.672952957e-06
2.693414765e-06
2.712879739e-06
2.731454823e-06
2.749237296e-06
2.766316756e-06
2.782777935e-06
2.798697175e-06
2.814177628e-06
2.829203851e-06
2.84407616e-06
2.859784121e-06
2.863037036e-06
2.942566085e-06
2.68593645e-06
3.611927017e-06
3.729861165e-07
1.965280652e-05
0.0001116979424
9.940465819e-07
1.394246366e-06
1.624152189e-06
1.784380141e-06
1.907740117e-06
2.007783999e-06
2.091663927e-06
2.163659168e-06
2.226540746e-06
2.282208697e-06
2.332024171e-06
2.376996824e-06
2.417897301e-06
2.455328153e-06
2.489770385e-06
2.521615012e-06
2.551185066e-06
2.578751284e-06
2.604543528e-06
2.628759234e-06
2.651569763e-06
2.673125249e-06
2.693558367e-06
2.712987334e-06
2.731518334e-06
2.74924762e-06
2.766263415e-06
2.782648738e-06
2.798475769e-06
2.813855581e-06
2.828679915e-06
2.843774171e-06
2.857232194e-06
2.869367048e-06
2.912777168e-06
2.780486002e-06
3.271762166e-06
1.149463727e-06
1.923504641e-05
0.0001277668185
9.939025682e-07
1.394025076e-06
1.623956262e-06
1.784205096e-06
1.907588776e-06
2.007658417e-06
2.09156515e-06
2.16358758e-06
2.226496213e-06
2.282190606e-06
2.332031433e-06
2.377027859e-06
2.417950012e-06
2.455399907e-06
2.489857989e-06
2.521714701e-06
2.551292487e-06
2.578861493e-06
2.604650988e-06
2.628857813e-06
2.651652725e-06
2.673185243e-06
2.693587393e-06
2.712976683e-06
2.731458503e-06
2.749128099e-06
2.766072412e-06
2.782372744e-06
2.798098184e-06
2.813371902e-06
2.82792707e-06
2.843728212e-06
2.852157543e-06
2.884506271e-06
2.862324234e-06
2.874177449e-06
3.096891763e-06
2.704311728e-06
2.201064523e-05
0.0001421794723
9.937586921e-07
1.393804072e-06
1.623772852e-06
1.784051869e-06
1.907467508e-06
2.007570416e-06
2.091510817e-06
2.16356673e-06
2.226508177e-06
2.282234244e-06
2.332105118e-06
2.377129441e-06
2.418076785e-06
2.455548578e-06
2.490024648e-06
2.521894804e-06
2.551480844e-06
2.579052266e-06
2.604837697e-06
2.629033341e-06
2.651809335e-06
2.673314579e-06
2.69368048e-06
2.713023906e-06
2.731449586e-06
2.749052019e-06
2.765917091e-06
2.782125677e-06
2.797738689e-06
2.812931113e-06
2.827045869e-06
2.84453887e-06
2.842609922e-06
2.922810595e-06
2.706521009e-06
3.367533069e-06
1.94703163e-06
8.782576044e-06
6.033423403e-05
0.0001589797397
9.93608629e-07
1.393571078e-06
1.623586263e-06
1.783902469e-06
1.907356789e-06
2.007499486e-06
2.091479839e-06
2.163575271e-06
2.2265553e-06
2.282318512e-06
2.332224558e-06
2.377281503e-06
2.4182583e-06
2.455755715e-06
2.490252885e-06
2.522138905e-06
2.551734853e-06
2.579309509e-06
2.605090796e-06
2.629274238e-06
2.652029324e-06
2.673504341e-06
2.693830117e-06
2.713122965e-06
2.731487094e-06
2.749016565e-06
2.76579642e-06
2.781909043e-06
2.797396851e-06
2.812560988e-06
2.825946333e-06
2.846338922e-06
2.830923865e-06
2.958491562e-06
2.600844234e-06
3.650388575e-06
1.025570226e-06
3.373110293e-06
8.294445233e-05
0.0001773809992
9.934531038e-07
1.393327767e-06
1.623399219e-06
1.783760462e-06
1.907260928e-06
2.007450621e-06
2.091477857e-06
2.163619465e-06
2.226644448e-06
2.282450868e-06
2.332397804e-06
2.377492696e-06
2.41850381e-06
2.456031183e-06
2.490553185e-06
2.522458122e-06
2.552066274e-06
2.579645638e-06
2.605423375e-06
2.629594292e-06
2.652327212e-06
2.673769825e-06
2.694052436e-06
2.713290918e-06
2.731589117e-06
2.749040921e-06
2.765731026e-06
2.781743148e-06
2.797107151e-06
2.812211922e-06
2.825079346e-06
2.847070796e-06
2.825487458e-06
2.965800976e-06
2.597805575e-06
3.659109533e-06
6.222808489e-07
1.11036504e-05
0.0001086020911
0.0001970025167
9.932921675e-07
1.393074394e-06
1.623212529e-06
1.783627168e-06
1.907181749e-06
2.007426175e-06
2.091507783e-06
2.163702805e-06
2.226779728e-06
2.282636066e-06
2.33263029e-06
2.37776916e-06
2.418820196e-06
2.45638263e-06
2.490933987e-06
2.522861702e-06
2.552485183e-06
2.580071569e-06
2.605847205e-06
2.630006138e-06
2.652716511e-06
2.674125436e-06
2.694362757e-06
2.713544021e-06
2.731772897e-06
2.749143267e-06
2.765740096e-06
2.781646994e-06
2.79689935e-06
2.811836979e-06
2.82487606e-06
2.844929732e-06
2.830887209e-06
2.950033731e-06
2.606237163e-06
3.564771047e-06
2.578036739e-06
1.917610999e-06
0.0001333284292
0.0002177488095
9.931260607e-07
1.392811625e-06
1.623027571e-06
1.783504609e-06
1.907121891e-06
2.00742941e-06
2.091573529e-06
2.16382988e-06
2.226966434e-06
2.282880141e-06
2.332928827e-06
2.378118519e-06
2.419215925e-06
2.456819396e-06
2.491405526e-06
2.523360797e-06
2.553003659e-06
2.58060032e-06
2.60637624e-06
2.630524667e-06
2.653213044e-06
2.674587918e-06
2.694778726e-06
2.71390081e-06
2.732057818e-06
2.749343775e-06
2.765844416e-06
2.781642288e-06
2.79679021e-06
2.811502566e-06
2.825037223e-06
2.841539118e-06
2.842875726e-06
2.902517691e-06
2.740733949e-06
3.42538299e-06
2.811749847e-06
1.119669951e-05
0.000160086441
0.0002394233658
9.929551173e-07
1.392540311e-06
1.622845979e-06
1.783395138e-06
1.907084397e-06
2.007464065e-06
2.091679559e-06
2.164005914e-06
2.227210589e-06
2.283189958e-06
2.333301166e-06
2.378549453e-06
2.419700644e-06
2.457352126e-06
2.491979477e-06
2.523968127e-06
2.55363548e-06
2.581246726e-06
2.607026373e-06
2.631166808e-06
2.653834751e-06
2.675176182e-06
2.69532018e-06
2.714381976e-06
2.732465314e-06
2.749664559e-06
2.766066437e-06
2.781752905e-06
2.796793097e-06
2.811296912e-06
2.825169247e-06
2.839205001e-06
2.849873586e-06
2.878689847e-06
2.791828137e-06
3.384028603e-06
4.400817721e-06
2.074058606e-05
0.0001869800767
0.0002620621286
9.927797838e-07
1.392261528e-06
1.622669701e-06
1.783301506e-06
1.907072793e-06
2.007534444e-06
2.091830984e-06
2.164236869e-06
2.227519058e-06
2.283573337e-06
2.333756135e-06
2.37907185e-06
2.420285346e-06
2.45799296e-06
2.492669151e-06
2.5246982e-06
2.554396359e-06
2.582027702e-06
2.607815701e-06
2.631951818e-06
2.654602e-06
2.675911649e-06
2.696009516e-06
2.715010749e-06
2.733019305e-06
2.750130116e-06
2.766430972e-06
2.782004201e-06
2.796929239e-06
2.811257517e-06
2.825271721e-06
2.837721893e-06
2.854735226e-06
2.859384182e-06
2.849891783e-06
3.097185415e-06
2.691485374e-06
3.289475824e-05
0.000213835648
0.0002858894922
9.926006247e-07
1.391976598e-06
1.62250101e-06
1.783226873e-06
1.907091094e-06
2.007645429e-06
2.092033586e-06
2.164529486e-06
2.2278996e-06
2.284039118e-06
2.334303721e-06
2.3796969e-06
2.420982484e-06
2.45875566e-06
2.493489658e-06
2.525567491e-06
2.555304144e-06
2.582962464e-06
2.608764784e-06
2.632901557e-06
2.655537898e-06
2.676818597e-06
2.69687206e-06
2.715813336e-06
2.733746712e-06
2.750767874e-06
2.766965884e-06
2.782423015e-06
2.797232688e-06
2.811368023e-06
2.825608017e-06
2.83601053e-06
2.861777713e-06
2.830560965e-06
2.937003964e-06
2.92986188e-06
3.431046315e-06
5.952558029e-06
0.0002425545684
0.0003109213514
9.92418331e-07
1.391687099e-06
1.622342526e-06
1.783174835e-06
1.907143834e-06
2.007802509e-06
2.092293859e-06
2.164891323e-06
2.22836092e-06
2.28459723e-06
2.334955152e-06
2.380437212e-06
2.421806109e-06
2.459655774e-06
2.494458086e-06
2.526594659e-06
2.55637907e-06
2.584072812e-06
2.609896955e-06
2.634040838e-06
2.65666866e-06
2.677924549e-06
2.697936488e-06
2.716819444e-06
2.734678082e-06
2.751608924e-06
2.767702452e-06
2.783041343e-06
2.797730456e-06
2.811686275e-06
2.826045665e-06
2.834930134e-06
2.867150264e-06
2.808366741e-06
3.016726105e-06
2.722283822e-06
1.184510303e-06
1.357585538e-05
0.0002723070331
0.000337167729
9.922337287e-07
1.391394894e-06
1.622197236e-06
1.783149437e-06
1.907236087e-06
2.008011813e-06
2.092619046e-06
2.165330805e-06
2.228912729e-06
2.285258772e-06
2.335723006e-06
2.38130693e-06
2.422772018e-06
2.460710821e-06
2.495593728e-06
2.527800798e-06
2.557644048e-06
2.585383457e-06
2.611238686e-06
2.635397831e-06
2.658024061e-06
2.67926074e-06
2.699235367e-06
2.718062855e-06
2.735848223e-06
2.752688739e-06
2.768676681e-06
2.783893259e-06
2.798471437e-06
2.81215913e-06
2.827102057e-06
2.832318683e-06
2.878914523e-06
2.769615458e-06
3.123220848e-06
2.455779115e-06
1.640058353e-06
2.352864083e-05
0.000302640069
0.0003646511842
9.920477869e-07
1.391102147e-06
1.62206851e-06
1.783155196e-06
1.907373492e-06
2.008280128e-06
2.09301717e-06
2.165857283e-06
2.229565813e-06
2.286036088e-06
2.336621314e-06
2.382321879e-06
2.42389793e-06
2.461940499e-06
2.496918322e-06
2.529209731e-06
2.559124998e-06
2.586922403e-06
2.612820022e-06
2.637004543e-06
2.659637964e-06
2.680862742e-06
2.700805853e-06
2.719582115e-06
2.737296853e-06
2.754047989e-06
2.769929686e-06
2.785020602e-06
2.799492173e-06
2.812852148e-06
2.82870091e-06
2.82860566e-06
2.895927548e-06
2.719824597e-06
3.230441422e-06
2.253041972e-06
2.335932907e-06
3.46804711e-05
0.0003332767743
0.0003934363273
9.918616245e-07
1.390811351e-06
1.62196012e-06
1.783197116e-06
1.907562271e-06
2.008614927e-06
2.093497055e-06
2.166481089e-06
2.230332102e-06
2.286942867e-06
2.337665673e-06
2.383499713e-06
2.425203675e-06
2.463366919e-06
2.498456342e-06
2.530848346e-06
2.56085124e-06
2.588721391e-06
2.614675079e-06
2.638897385e-06
2.661548949e-06
2.682771191e-06
2.702690469e-06
2.721421379e-06
2.739069479e-06
2.755733377e-06
2.771508808e-06
2.786473388e-06
2.800823891e-06
2.813925466e-06
2.830207386e-06
2.827331677e-06
2.903336341e-06
2.709500735e-06
3.211765909e-06
2.298310713e-06
3.875048877e-06
4.688713756e-05
0.000364083913
0.0004237272467
9.916765157e-07
1.390525342e-06
1.621876252e-06
1.783280695e-06
1.907809225e-06
2.009024389e-06
2.094068366e-06
2.16721358e-06
2.231224766e-06
2.287994251e-06
2.338873395e-06
2.384860087e-06
2.426711413e-06
2.465014878e-06
2.500235324e-06
2.532746984e-06
2.562855954e-06
2.590816428e-06
2.616842638e-06
2.641117827e-06
2.663801059e-06
2.685032569e-06
2.704937932e-06
2.723631372e-06
2.74121856e-06
2.757798745e-06
2.773469179e-06
2.788306789e-06
2.802527886e-06
2.81539693e-06
2.831935302e-06
2.826797611e-06
2.91233549e-06
2.676183982e-06
3.340814897e-06
1.994281841e-06
4.053416998e-06
6.1249303e-05
0.0003946795524
0.0004557115145
9.914938954e-07
1.39024733e-06
1.621821521e-06
1.783411925e-06
1.908121746e-06
2.009517445e-06
2.094741654e-06
2.168067126e-06
2.232258266e-06
2.289206978e-06
2.340263682e-06
2.386424884e-06
2.428445906e-06
2.466912186e-06
2.502286257e-06
2.534939903e-06
2.565176706e-06
2.593248386e-06
2.619366833e-06
2.643713171e-06
2.666444647e-06
2.687700099e-06
2.707604134e-06
2.726270447e-06
2.743804685e-06
2.760306565e-06
2.775874828e-06
2.790585508e-06
2.804673966e-06
2.817313887e-06
2.83398319e-06
2.827573383e-06
2.915930813e-06
2.67257165e-06
3.364408184e-06
1.805502594e-06
5.488120668e-06
8.93598187e-06
0.0004273117846
0.0004892793955
9.91315361e-07
1.389980905e-06
1.62180097e-06
1.78359731e-06
1.908507832e-06
2.010103735e-06
2.095528352e-06
2.169055148e-06
2.233448412e-06
2.290599481e-06
2.34185783e-06
2.388218496e-06
2.430434868e-06
2.469090078e-06
2.504644058e-06
2.537465809e-06
2.567856061e-06
2.596063697e-06
2.622297925e-06
2.646737438e-06
2.669537346e-06
2.690834835e-06
2.71075334e-06
2.729405856e-06
2.746897861e-06
2.763329387e-06
2.778800346e-06
2.793386552e-06
2.807336627e-06
2.819767497e-06
2.836438067e-06
2.829173919e-06
2.919090294e-06
2.674676711e-06
3.326863461e-06
2.196817484e-06
5.365167001e-06
1.971872218e-05
0.0004607361397
0.0005244091714
9.911426584e-07
1.389730026e-06
1.621820051e-06
1.783843817e-06
1.908976042e-06
2.010793574e-06
2.096440816e-06
2.170192225e-06
2.234812378e-06
2.29219193e-06
2.34367933e-06
2.390268043e-06
2.432709315e-06
2.471583685e-06
2.507348143e-06
2.540368519e-06
2.570942315e-06
2.59931516e-06
2.625693202e-06
2.650252351e-06
2.673145176e-06
2.694506872e-06
2.714459492e-06
2.733115154e-06
2.750579037e-06
2.766951354e-06
2.782332969e-06
2.796799158e-06
2.810610605e-06
2.822839931e-06
2.839414975e-06
2.831843485e-06
2.92071312e-06
2.681421828e-06
3.318687829e-06
2.184655419e-06
6.819121913e-06
3.236928346e-05
0.000494248629
0.0005611616341
9.909776523e-07
1.389499023e-06
1.621884584e-06
1.784158827e-06
1.909535414e-06
2.011597875e-06
2.097492278e-06
2.171494162e-06
2.236368738e-06
2.294006241e-06
2.345753914e-06
2.392603453e-06
2.435303743e-06
2.474432381e-06
2.510442973e-06
2.543697715e-06
2.574490424e-06
2.603063035e-06
2.629618174e-06
2.654328595e-06
2.677343873e-06
2.698796795e-06
2.718807762e-06
2.737487853e-06
2.754941872e-06
2.771270096e-06
2.786574433e-06
2.800927261e-06
2.814614818e-06
2.82657211e-06
2.84347024e-06
2.833283662e-06
2.93170981e-06
2.657523984e-06
3.398321073e-06
2.176094959e-06
7.65839052e-06
4.553602396e-05
0.0005276390808
0.0005995033826
9.908223334e-07
1.389292759e-06
1.62200081e-06
1.784550137e-06
1.910195486e-06
2.01252818e-06
2.098696655e-06
2.172977842e-06
2.238137696e-06
2.296066312e-06
2.348109752e-06
2.395257695e-06
2.438256405e-06
2.477680148e-06
2.513978623e-06
2.547509802e-06
2.578563219e-06
2.60737661e-06
2.634148384e-06
2.659047703e-06
2.682220842e-06
2.70379768e-06
2.723896632e-06
2.742627579e-06
2.760094971e-06
2.77639913e-06
2.791643245e-06
2.805894421e-06
2.81947397e-06
2.831139467e-06
2.848392822e-06
2.835845385e-06
2.941136817e-06
2.646617758e-06
3.438011132e-06
2.053678275e-06
6.137112373e-07
6.349635795e-05
0.0005604930667
0.000639325393
9.906789412e-07
1.38911687e-06
1.62217556e-06
1.785026088e-06
1.910966399e-06
2.013596806e-06
2.100068832e-06
2.174661368e-06
2.240141259e-06
2.298398485e-06
2.350778077e-06
2.398267636e-06
2.441610372e-06
2.481376697e-06
2.518011906e-06
2.551869174e-06
2.583232998e-06
2.612336107e-06
2.639371825e-06
2.664504897e-06
2.687878091e-06
2.709618028e-06
2.729840812e-06
2.748655031e-06
2.766164885e-06
2.782470876e-06
2.797678188e-06
2.811844045e-06
2.825350607e-06
2.836631703e-06
2.85473147e-06
2.837803317e-06
2.957212265e-06
2.619541608e-06
3.527309023e-06
1.691535541e-06
3.444267362e-06
8.400089905e-05
0.0005923890228
0.0006808835253
9.905501045e-07
1.38897731e-06
1.622416117e-06
1.785595513e-06
1.911858905e-06
2.014816932e-06
2.101625004e-06
2.176564524e-06
2.242403594e-06
2.301032216e-06
2.353794324e-06
2.40167532e-06
2.445414969e-06
2.48557922e-06
2.522608447e-06
2.556850444e-06
2.588583702e-06
2.618034814e-06
2.645391193e-06
2.670811796e-06
2.694435333e-06
2.716385142e-06
2.736774815e-06
2.755711639e-06
2.773299703e-06
2.789640181e-06
2.804841365e-06
2.818947099e-06
2.832418766e-06
2.843270827e-06
2.862500141e-06
2.840217527e-06
2.976755452e-06
2.588343114e-06
3.619554669e-06
1.474832655e-06
5.742931272e-06
1.077712564e-05
0.0006243516617
0.0007244593092
9.904387093e-07
1.388878795e-06
1.622729336e-06
1.786267062e-06
1.912883805e-06
2.016202141e-06
2.103382293e-06
2.178708789e-06
2.244951391e-06
2.304000304e-06
2.357198361e-06
2.405528588e-06
2.449726825e-06
2.490353974e-06
2.527844725e-06
2.562540511e-06
2.594712793e-06
2.624580865e-06
2.65232525e-06
2.678098004e-06
2.702032327e-06
2.724247892e-06
2.744855896e-06
2.763962559e-06
2.781672223e-06
2.798087543e-06
2.813321985e-06
2.827402325e-06
2.840890463e-06
2.851283118e-06
2.871903873e-06
2.843496051e-06
2.999669579e-06
2.552683742e-06
3.727887283e-06
1.269326505e-06
6.430181301e-06
1.993170182e-05
0.000658777158
0.0007699176423
9.903475303e-07
1.388824322e-06
1.623121095e-06
1.787048675e-06
1.914051404e-06
2.017765835e-06
2.105358092e-06
2.18111654e-06
2.247813077e-06
2.307338328e-06
2.361034122e-06
2.40988082e-06
2.454609659e-06
2.495775922e-06
2.533807789e-06
2.5690391e-06
2.601732929e-06
2.632099893e-06
2.660312161e-06
2.686514031e-06
2.710831441e-06
2.733379091e-06
2.754266018e-06
2.773598368e-06
2.791481963e-06
2.808021894e-06
2.823339986e-06
2.837439356e-06
2.851025072e-06
2.86087909e-06
2.883435934e-06
2.847306534e-06
3.027563727e-06
2.512585224e-06
3.843467002e-06
1.090643491e-06
7.749570346e-06
3.424922692e-05
0.0006932085731
0.0008171977206
9.902791577e-07
1.388818797e-06
1.62359803e-06
1.787948742e-06
1.915372437e-06
2.019521973e-06
2.107570631e-06
2.183811456e-06
2.251019078e-06
2.311084853e-06
2.365349732e-06
2.414790954e-06
2.460134565e-06
2.501929645e-06
2.540596764e-06
2.576460697e-06
2.609774574e-06
2.640738649e-06
2.66951455e-06
2.696236965e-06
2.721023368e-06
2.743982018e-06
2.765218915e-06
2.784841281e-06
2.80295943e-06
2.819683636e-06
2.835148449e-06
2.849326917e-06
2.863107847e-06
2.872399325e-06
2.897267063e-06
2.852838231e-06
3.057502229e-06
2.478794871e-06
3.953229486e-06
9.788567212e-07
9.486354262e-06
5.24386898e-05
0.0007272603986
0.0008664105476
9.90236096e-07
1.388872972e-06
1.624169755e-06
1.788977837e-06
1.916859716e-06
2.021486776e-06
2.110040834e-06
2.186820591e-06
2.25460417e-06
2.315284115e-06
2.370200627e-06
2.420327222e-06
2.466384427e-06
2.508914291e-06
2.548328328e-06
2.584940563e-06
2.618992361e-06
2.650671419e-06
2.680126329e-06
2.707479265e-06
2.73283707e-06
2.756300104e-06
2.777970169e-06
2.797956256e-06
2.816376955e-06
2.833353125e-06
2.849040088e-06
2.863374396e-06
2.877478044e-06
2.886208747e-06
2.913787078e-06
2.860575624e-06
3.090549303e-06
2.44690426e-06
4.072025415e-06
8.531312878e-07
1.189035482e-05
7.045867019e-05
0.0007604665169
0.0009176182801
9.902201426e-07
1.388999156e-06
1.624846483e-06
1.790147097e-06
1.91852709e-06
2.023678301e-06
2.112792548e-06
2.190175308e-06
2.258609156e-06
2.31998851e-06
2.37565288e-06
2.426571579e-06
2.473459324e-06
2.5168499e-06
2.557144054e-06
2.594643126e-06
2.629574456e-06
2.662110405e-06
2.69238335e-06
2.720499405e-06
2.746551085e-06
2.770628276e-06
2.792827561e-06
2.813260468e-06
2.83205823e-06
2.849360344e-06
2.865355353e-06
2.879943936e-06
2.894506241e-06
2.902868555e-06
2.932762532e-06
2.874628534e-06
3.111784749e-06
2.47365853e-06
4.056380478e-06
7.992931786e-07
1.350985235e-06
9.265524987e-05
0.0007923208238
0.0009705681306
9.902318738e-07
1.389203077e-06
1.625634171e-06
1.791464535e-06
1.920386362e-06
2.026113882e-06
2.115850462e-06
2.193909695e-06
2.263079855e-06
2.325258264e-06
2.381783654e-06
2.433621143e-06
2.481478889e-06
2.525880922e-06
2.567215341e-06
2.605768539e-06
2.641750929e-06
2.67531593e-06
2.706575589e-06
2.735615123e-06
2.76250756e-06
2.787327859e-06
2.810165163e-06
2.831134644e-06
2.850386552e-06
2.868090996e-06
2.884488295e-06
2.899452466e-06
2.914623948e-06
2.923006777e-06
2.954165355e-06
2.898360691e-06
3.11082825e-06
2.601058014e-06
3.780965074e-06
1.09416988e-06
4.273455274e-06
0.0001188801127
0.0008219238916
0.001025274576
9.902719316e-07
1.389486933e-06
1.626536208e-06
1.792936061e-06
1.922447965e-06
2.028810596e-06
2.119240454e-06
2.19806086e-06
2.26806751e-06
2.331162101e-06
2.388682496e-06
2.441589877e-06
2.490584688e-06
2.536179635e-06
2.57874827e-06
2.618559454e-06
2.655803013e-06
2.69060875e-06
2.723062619e-06
2.753221739e-06
2.781132062e-06
2.806846801e-06
2.830443443e-06
2.852041801e-06
2.871820156e-06
2.889996933e-06
2.906894698e-06
2.922363921e-06
2.938414383e-06
2.946818457e-06
2.981117765e-06
2.919097016e-06
3.152744388e-06
2.58833419e-06
3.874691654e-06
1.001457491e-06
7.156901567e-06
3.215920189e-05
0.0008507115642
0.001082062634
9.903420233e-07
1.389858634e-06
1.627559283e-06
1.794570207e-06
1.924725369e-06
2.031789624e-06
2.122994035e-06
2.202673552e-06
2.273633716e-06
2.33778265e-06
2.396457719e-06
2.450615897e-06
2.500948624e-06
2.547955692e-06
2.59199419e-06
2.633312682e-06
2.672076505e-06
2.708386475e-06
2.742294332e-06
2.77381797e-06
2.802963823e-06
2.82975194e-06
2.854240576e-06
2.876554515e-06
2.896913178e-06
2.915610807e-06
2.93309771e-06
2.949217924e-06
2.966460571e-06
2.975123241e-06
3.013436329e-06
2.944279387e-06
3.209663355e-06
2.516642219e-06
4.291694506e-06
1.136657895e-07
7.429055973e-06
2.054012565e-05
0.0008821695718
0.001140952354
9.90443398e-07
1.390329342e-06
1.628712428e-06
1.796378444e-06
1.927236578e-06
2.035078792e-06
2.127151824e-06
2.207804577e-06
2.279855864e-06
2.345222995e-06
2.405244198e-06
2.460871326e-06
2.512785082e-06
2.561470446e-06
2.607265983e-06
2.650397285e-06
2.691001857e-06
2.729146083e-06
2.764837205e-06
2.798037701e-06
2.828693924e-06
2.85677213e-06
2.882296427e-06
2.90539383e-06
2.926344187e-06
2.945561926e-06
2.963693581e-06
2.98063697e-06
2.999322297e-06
3.009355907e-06
3.049113832e-06
2.989746892e-06
3.211728916e-06
2.70411401e-06
3.981122475e-06
5.07425908e-07
8.429688312e-06
3.263358777e-05
0.000913333682
0.001201958373
9.905762458e-07
1.390907325e-06
1.630003063e-06
1.798372682e-06
1.930002997e-06
2.03871267e-06
2.131764686e-06
2.213525053e-06
2.286830784e-06
2.353612153e-06
2.415210688e-06
2.472572403e-06
2.526364647e-06
2.577054947e-06
2.624961345e-06
2.67028431e-06
2.71313107e-06
2.753527897e-06
2.791425667e-06
2.826707636e-06
2.85922857e-06
2.888865026e-06
2.915578591e-06
2.939487483e-06
2.960958934e-06
2.980595232e-06
2.999367081e-06
3.01724059e-06
3.037954475e-06
3.04963668e-06
3.093130741e-06
3.037168816e-06
3.261464491e-06
2.774831604e-06
3.762363746e-06
1.693895074e-06
9.688504729e-06
4.656409178e-05
0.0009434706131
0.001265079972
9.907412825e-07
1.39160103e-06
1.631438405e-06
1.800566356e-06
1.933051098e-06
2.042735037e-06
2.136897106e-06
2.21992515e-06
2.294681965e-06
2.363116713e-06
2.426578125e-06
2.486006383e-06
2.542051684e-06
2.595161601e-06
2.645631223e-06
2.693635175e-06
2.739249611e-06
2.782453737e-06
2.823128586e-06
2.861033673e-06
2.895887527e-06
2.927415727e-06
2.95546513e-06
2.980122023e-06
3.001882164e-06
3.021636982e-06
3.040897057e-06
3.059696291e-06
3.083538043e-06
3.095307171e-06
3.153159498e-06
3.077260968e-06
3.353028792e-06
2.783408616e-06
4.088568367e-06
7.825227062e-07
1.102238685e-05
6.117352458e-05
0.0009721002238
0.001330275291
9.909397642e-07
1.392421435e-06
1.633027269e-06
1.802977085e-06
1.936417063e-06
2.047206008e-06
2.142637805e-06
2.227130304e-06
2.303584774e-06
2.373980347e-06
2.439679975e-06
2.501617486e-06
2.560419789e-06
2.616516825e-06
2.670167377e-06
2.721523157e-06
2.770634924e-06
2.817432502e-06
2.861708301e-06
2.903016876e-06
2.940875223e-06
2.974750403e-06
3.004266138e-06
3.029428849e-06
3.050933783e-06
3.070113985e-06
3.089333862e-06
3.10907126e-06
3.136042072e-06
3.152199623e-06
3.215840919e-06
3.150438238e-06
3.427140282e-06
2.868994901e-06
4.186580795e-06
7.704161669e-07
1.320095529e-05
7.602419054e-05
0.0009996120945
0.001397664156
9.911741112e-07
1.393383898e-06
1.634783649e-06
1.805634618e-06
1.940161265e-06
2.052225848e-06
2.149135233e-06
2.235352221e-06
2.313837405e-06
2.386617499e-06
2.455074619e-06
2.520122577e-06
2.582350096e-06
2.642170662e-06
2.699755167e-06
2.755253197e-06
2.808727874e-06
2.860130388e-06
2.909084554e-06
2.95498244e-06
2.996956352e-06
3.03403195e-06
3.065415368e-06
3.090863393e-06
3.111314899e-06
3.12873037e-06
3.146871987e-06
3.166735007e-06
3.198615951e-06
3.21721196e-06
3.297624213e-06
3.236317019e-06
3.506795555e-06
3.046053986e-06
4.231966618e-06
7.788632833e-07
1.523178438e-05
9.092711046e-05
0.00102425484
0.001467299551
9.914591581e-07
1.394523902e-06
1.636747668e-06
1.808612823e-06
1.944409764e-06
2.057990652e-06
2.156658485e-06
2.244940329e-06
2.325873825e-06
2.401531684e-06
2.473273764e-06
2.541921257e-06
2.607991537e-06
2.671752594e-06
2.733341838e-06
2.793010115e-06
2.850940831e-06
2.907497119e-06
2.961628314e-06
3.013742513e-06
3.061665466e-06
3.103606845e-06
3.13843219e-06
3.165178014e-06
3.184739461e-06
3.199842472e-06
3.216010956e-06
3.235791328e-06
3.273564349e-06
3.295473472e-06
3.406200482e-06
3.316810133e-06
3.705350812e-06
3.067586874e-06
4.322487586e-06
1.888942283e-06
2.171657121e-05
0.0001198180303
0.001048651733
0.001539207286
9.918478546e-07
1.395910326e-06
1.638992061e-06
1.812028878e-06
1.949309094e-06
2.064667566e-06
2.165314532e-06
2.255827333e-06
2.339273413e-06
2.41767208e-06
2.492223369e-06
2.563587771e-06
2.632290989e-06
2.697700393e-06
2.761446866e-06
2.824097911e-06
2.885715238e-06
2.947840059e-06
3.006388268e-06
3.067435843e-06
3.123408478e-06
3.170183895e-06
3.208519166e-06
3.236948106e-06
3.256098993e-06
3.269777058e-06
3.285862927e-06
3.309109957e-06
3.356121666e-06
3.395694786e-06
3.530135812e-06
3.459981607e-06
3.906977222e-06
3.097997929e-06
4.991062079e-06
1.462309221e-06
1.211249527e-05
9.509669079e-05
0.001069630374
0.001613356356
9.923716838e-07
1.397426038e-06
1.641237976e-06
1.815424776e-06
1.954075888e-06
2.070862636e-06
2.172795524e-06
2.264393895e-06
2.34869055e-06
2.42770934e-06
2.502957494e-06
2.57608964e-06
2.648695974e-06
2.717173901e-06
2.792066816e-06
2.87320949e-06
2.957134487e-06
3.045449045e-06
3.123731365e-06
3.21118632e-06
3.28059478e-06
3.318307622e-06
3.334607633e-06
3.334746527e-06
3.32532748e-06
3.31598846e-06
3.321194384e-06
3.342435299e-06
3.408859495e-06
3.481521279e-06
3.670460292e-06
3.646831037e-06
4.13779498e-06
3.39119751e-06
5.407471616e-06
1.51665773e-06
2.531457746e-05
0.0001598990495
0.001086592151
0.001689609101
9.924529056e-07
1.397478813e-06
1.640919226e-06
1.814919717e-06
1.953572047e-06
2.069055401e-06
2.169553014e-06
2.259762732e-06
2.344121064e-06
2.427575409e-06
2.517087985e-06
2.621947409e-06
2.747921582e-06
2.884642895e-06
3.068394217e-06
3.288397797e-06
3.52448084e-06
3.76956966e-06
3.984733381e-06
4.194872789e-06
4.313733495e-06
4.293880918e-06
4.166478109e-06
3.973737721e-06
3.764828307e-06
3.583949732e-06
3.467426101e-06
3.399636701e-06
3.444098201e-06
3.50409609e-06
3.747457934e-06
3.823417759e-06
4.435246693e-06
3.882429661e-06
5.514708533e-06
1.907659213e-06
1.124915795e-05
8.783230792e-05
0.001103147333
0.00176827923
9.895246608e-07
1.390571746e-06
1.630567175e-06
1.800544593e-06
1.939077297e-06
2.050634513e-06
2.154412121e-06
2.25869513e-06
2.378830408e-06
2.537012045e-06
2.76362693e-06
3.089912642e-06
3.523572923e-06
4.038167211e-06
4.705397785e-06
5.47176368e-06
6.279940877e-06
7.099725691e-06
7.847660252e-06
8.484462114e-06
8.777347576e-06
8.590853856e-06
7.983608559e-06
7.113679537e-06
6.18500368e-06
5.368209407e-06
4.757054642e-06
4.318661986e-06
4.124898365e-06
3.907055371e-06
3.980086852e-06
3.924831661e-06
4.66230743e-06
4.312066648e-06
6.043221862e-06
2.546889696e-06
2.257405874e-05
0.0001557616297
0.001118828083
0.001849263087
9.819388473e-07
1.374972683e-06
1.614286637e-06
1.786414666e-06
1.954284568e-06
2.095489087e-06
2.274094176e-06
2.515554427e-06
2.876037914e-06
3.428692143e-06
4.252947003e-06
5.399186869e-06
6.838949203e-06
8.501552539e-06
1.045687632e-05
1.257427631e-05
1.477794337e-05
1.70173983e-05
1.91146988e-05
2.077481669e-05
2.146544515e-05
2.088558056e-05
1.914298075e-05
1.667690726e-05
1.406759286e-05
1.178202836e-05
1.00282019e-05
8.803360172e-06
8.002024458e-06
7.116964875e-06
6.406191232e-06
5.064713772e-06
4.572055287e-06
4.676286249e-06
6.908630563e-06