/*--------------------------------*- C++ -*----------------------------------*\
| =========                 |                                                 |
| \\      /  F ield         | OpenFOAM: The Open Source CFD Toolbox           |
|  \\    /   O peration     | Version:  v1912                                 |
|   \\  /    A nd           | Website:  www.openfoam.com                      |
|    \\/     M anipulation  |                                                 |
\*---------------------------------------------------------------------------*/
FoamFile
{
    version     2.0;
    format      ascii;
    class       volScalarField;
    location    "0.9";
    object      k.liquid_0;
}
// * * * * * * * * * * * * * * * * * * * * * * * * * * * * * * * * * * * * * //

dimensions      [0 2 -2 0 0 0 0];


internalField   nonuniform List<scalar> 
4800
(
4.299318556e-07
6.006535133e-07
6.988896606e-07
7.713908404e-07
8.342219954e-07
8.943697265e-07
9.558643547e-07
1.021433971e-06
1.093137203e-06
1.172654566e-06
1.261436236e-06
1.360781163e-06
1.471879608e-06
1.595835331e-06
1.733676711e-06
1.886362818e-06
2.054788869e-06
2.239794646e-06
2.442178924e-06
2.662722594e-06
2.90222283e-06
3.161540417e-06
3.441662216e-06
3.743780715e-06
4.069393269e-06
4.420424718e-06
4.799377914e-06
5.209517095e-06
5.655114154e-06
6.141691088e-06
6.676651583e-06
7.269468977e-06
7.928544405e-06
8.706542882e-06
9.433503928e-06
1.089622738e-05
1.091645222e-05
1.502922498e-05
7.704857019e-06
3.369560746e-05
1.04765375e-06
1.470978707e-06
1.7138512e-06
1.882902106e-06
2.012740761e-06
2.117696528e-06
2.205348214e-06
2.280240257e-06
2.34532536e-06
2.402638367e-06
2.453648004e-06
2.499455941e-06
2.540916493e-06
2.578712303e-06
2.61340412e-06
2.645464648e-06
2.675302154e-06
2.703277309e-06
2.729715405e-06
2.754915369e-06
2.779156542e-06
2.8027039e-06
2.825812239e-06
2.848729709e-06
2.871700998e-06
2.894970236e-06
2.91878455e-06
2.943393034e-06
2.969078486e-06
2.995962788e-06
3.025153717e-06
3.052842882e-06
3.096659316e-06
3.091957264e-06
3.250164986e-06
2.949838924e-06
3.809026957e-06
2.293118959e-06
2.695747951e-06
7.04074115e-05
9.897096402e-07
1.387718705e-06
1.616305959e-06
1.775674597e-06
1.898421535e-06
1.998014414e-06
2.081560204e-06
2.153310661e-06
2.216018424e-06
2.27157079e-06
2.321319651e-06
2.366267661e-06
2.407180001e-06
2.444654848e-06
2.479169613e-06
2.511112306e-06
2.540803403e-06
2.568511456e-06
2.594464456e-06
2.61885825e-06
2.641862882e-06
2.663627433e-06
2.684283804e-06
2.703949724e-06
2.722731233e-06
2.740724837e-06
2.758019749e-06
2.774698235e-06
2.790850706e-06
2.806486343e-06
2.82213915e-06
2.835320123e-06
2.859399808e-06
2.833485469e-06
3.006777097e-06
2.491948122e-06
3.973523997e-06
6.151140418e-07
6.927042489e-06
9.254461904e-05
9.947651634e-07
1.395493008e-06
1.625698451e-06
1.786164265e-06
1.909711746e-06
2.009905228e-06
2.093905367e-06
2.165997388e-06
2.228956606e-06
2.284686532e-06
2.334551235e-06
2.379562927e-06
2.420494568e-06
2.457950873e-06
2.492414897e-06
2.524279635e-06
2.553870031e-06
2.581458698e-06
2.607277333e-06
2.631525192e-06
2.654375453e-06
2.675980104e-06
2.696473765e-06
2.715976759e-06
2.734597693e-06
2.752435789e-06
2.76958312e-06
2.786126892e-06
2.802151907e-06
2.817742944e-06
2.833024444e-06
2.847700127e-06
2.86538125e-06
2.862097272e-06
2.971704922e-06
2.609670585e-06
3.635528236e-06
2.495601609e-06
1.814156491e-05
0.0001108891612
9.941474722e-07
1.394490528e-06
1.624514919e-06
1.784859683e-06
1.908325745e-06
2.008464978e-06
2.092430619e-06
2.164503132e-06
2.227454659e-06
2.283186295e-06
2.333060201e-06
2.378086996e-06
2.419038254e-06
2.456517437e-06
2.491006437e-06
2.522897142e-06
2.552513437e-06
2.580126893e-06
2.605968188e-06
2.630235552e-06
2.653101128e-06
2.674715827e-06
2.695213119e-06
2.714712062e-06
2.73331978e-06
2.751133695e-06
2.768243507e-06
2.784734023e-06
2.80068156e-06
2.816189477e-06
2.831241989e-06
2.846136055e-06
2.861897329e-06
2.865025896e-06
2.945102982e-06
2.687035691e-06
3.618262847e-06
3.150243299e-07
1.845024136e-05
0.0001297689107
9.940622895e-07
1.394375916e-06
1.624444768e-06
1.784822905e-06
1.908320432e-06
2.008489856e-06
2.092484303e-06
2.164584144e-06
2.227561439e-06
2.283317138e-06
2.333213198e-06
2.378259986e-06
2.419228779e-06
2.456722704e-06
2.491223288e-06
2.523122032e-06
2.552742413e-06
2.580355584e-06
2.606191795e-06
2.630448835e-06
2.65329839e-06
2.674890886e-06
2.695359256e-06
2.714821941e-06
2.733385311e-06
2.751145768e-06
2.768191645e-06
2.784606051e-06
2.800461126e-06
2.815868389e-06
2.830717911e-06
2.845839037e-06
2.859328031e-06
2.871421055e-06
2.91512586e-06
2.782167884e-06
3.27735537e-06
1.098710129e-06
1.761079036e-05
0.0001482785628
9.939179949e-07
1.394153872e-06
1.624248593e-06
1.78464804e-06
1.908169689e-06
2.008365284e-06
2.092386929e-06
2.164514329e-06
2.22751902e-06
2.283301471e-06
2.333223159e-06
2.378293955e-06
2.41928462e-06
2.456797742e-06
2.491314288e-06
2.523225181e-06
2.552853314e-06
2.580469251e-06
2.606302646e-06
2.630550695e-06
2.653384486e-06
2.674953831e-06
2.69539102e-06
2.714813789e-06
2.733327723e-06
2.751028223e-06
2.768002351e-06
2.784331514e-06
2.800084724e-06
2.81538609e-06
2.829963898e-06
2.845804523e-06
2.854214628e-06
2.886671432e-06
2.864468707e-06
2.876389527e-06
3.097459762e-06
2.64640816e-06
2.069854377e-05
0.000164939943
9.937738784e-07
1.393932151e-06
1.624065119e-06
1.784495296e-06
1.908049428e-06
2.008278796e-06
2.092334589e-06
2.164495918e-06
2.227533831e-06
2.283348323e-06
2.333300379e-06
2.378399345e-06
2.419415426e-06
2.456950617e-06
2.491485269e-06
2.52340967e-06
2.553046069e-06
2.58066438e-06
2.606493616e-06
2.630730343e-06
2.653545029e-06
2.675086872e-06
2.69548755e-06
2.714864163e-06
2.733321644e-06
2.75095466e-06
2.767849225e-06
2.784086355e-06
2.799726736e-06
2.814947446e-06
2.829079599e-06
2.84663812e-06
2.844577063e-06
2.925288825e-06
2.707852152e-06
3.370839326e-06
1.935669424e-06
8.557400919e-06
5.96730121e-05
0.0001849510619
9.936235789e-07
1.393698389e-06
1.623878536e-06
1.784346551e-06
1.907939986e-06
2.008209741e-06
2.09230605e-06
2.164507423e-06
2.227584398e-06
2.283436464e-06
2.33342407e-06
2.378555981e-06
2.419601778e-06
2.457162793e-06
2.491718685e-06
2.52365903e-06
2.553305351e-06
2.580926849e-06
2.606751835e-06
2.630976198e-06
2.653769761e-06
2.675281116e-06
2.695641366e-06
2.71496707e-06
2.733362643e-06
2.750922332e-06
2.76773131e-06
2.783872166e-06
2.799386776e-06
2.814580395e-06
2.827975877e-06
2.848461489e-06
2.83283302e-06
2.96107944e-06
2.601995641e-06
3.654490389e-06
1.034403755e-06
3.035614849e-06
8.215311962e-05
0.0002062491803
9.934678358e-07
1.393454287e-06
1.623691611e-06
1.784205428e-06
1.907845737e-06
2.008163187e-06
2.092307038e-06
2.164555198e-06
2.227677686e-06
2.283573462e-06
2.333602397e-06
2.378772629e-06
2.41985305e-06
2.457444261e-06
2.492025151e-06
2.523984505e-06
2.553643052e-06
2.581269207e-06
2.607090524e-06
2.631302179e-06
2.654073333e-06
2.675551988e-06
2.695868734e-06
2.715139694e-06
2.733468938e-06
2.750950545e-06
2.767669358e-06
2.783709344e-06
2.799099645e-06
2.814234339e-06
2.82710891e-06
2.8491984e-06
2.827413457e-06
2.968299981e-06
2.599043253e-06
3.664030404e-06
6.14491559e-07
1.066475534e-05
0.0001078975427
0.000228674689
9.933067099e-07
1.393200113e-06
1.623505177e-06
1.78407328e-06
1.907768551e-06
2.008141543e-06
2.092340528e-06
2.164642809e-06
2.227817881e-06
2.283764155e-06
2.333840887e-06
2.379055532e-06
2.420176232e-06
2.457802782e-06
2.492413221e-06
2.524395466e-06
2.554069372e-06
2.581702499e-06
2.607521587e-06
2.631721056e-06
2.654469394e-06
2.675914033e-06
2.69618511e-06
2.715398433e-06
2.733657906e-06
2.751057617e-06
2.767682697e-06
2.783617003e-06
2.798895388e-06
2.813861613e-06
2.826912934e-06
2.847042944e-06
2.832852157e-06
2.952512646e-06
2.60787947e-06
3.56411568e-06
2.590565709e-06
1.147414293e-06
0.0001325350337
0.0002522340742
9.931404537e-07
1.39293655e-06
1.623320646e-06
1.783952176e-06
1.907711122e-06
2.008148139e-06
2.092410509e-06
2.164774931e-06
2.228010376e-06
2.284014685e-06
2.334146465e-06
2.379412435e-06
2.42057992e-06
2.45824783e-06
2.492893274e-06
2.524903212e-06
2.554596543e-06
2.582239898e-06
2.608059136e-06
2.63224788e-06
2.654973929e-06
2.676384155e-06
2.6966083e-06
2.71576198e-06
2.733949091e-06
2.751263879e-06
2.767792263e-06
2.783617013e-06
2.798790774e-06
2.813529718e-06
2.827084377e-06
2.843629084e-06
2.844928175e-06
2.904818449e-06
2.742103414e-06
3.425340985e-06
2.79766883e-06
1.056643519e-05
0.000159348637
0.000276782801
9.929694156e-07
1.39266447e-06
1.623139688e-06
1.783844521e-06
1.907676559e-06
2.008186791e-06
2.092521538e-06
2.164956891e-06
2.228261305e-06
2.28433204e-06
2.334527016e-06
2.37985216e-06
2.42107391e-06
2.45879021e-06
2.493477149e-06
2.525520634e-06
2.55523852e-06
2.58289642e-06
2.608719246e-06
2.632899767e-06
2.655605063e-06
2.676981452e-06
2.697158329e-06
2.716251213e-06
2.73436411e-06
2.751591621e-06
2.768020682e-06
2.783733448e-06
2.798799166e-06
2.81332803e-06
2.827224841e-06
2.841286125e-06
2.851958902e-06
2.88097513e-06
2.793002647e-06
3.37966982e-06
4.389196041e-06
2.00311135e-05
0.0001862708431
0.0003023933697
9.927940583e-07
1.392384976e-06
1.622964297e-06
1.783753126e-06
1.907668465e-06
2.008261894e-06
2.092678827e-06
2.165194768e-06
2.228577665e-06
2.284724182e-06
2.334991521e-06
2.380384759e-06
2.42166937e-06
2.459442244e-06
2.494178348e-06
2.526262439e-06
2.556011218e-06
2.583689189e-06
2.609520227e-06
2.633696186e-06
2.656383381e-06
2.677727563e-06
2.69785781e-06
2.716889574e-06
2.734927092e-06
2.752065549e-06
2.768392965e-06
2.783991863e-06
2.79894198e-06
2.813294079e-06
2.827335839e-06
2.839796627e-06
2.856862544e-06
2.861567997e-06
2.851685706e-06
3.098791252e-06
2.617055063e-06
3.223588054e-05
0.0002131701619
0.000329372809
9.926149656e-07
1.392099418e-06
1.622796796e-06
1.783681224e-06
1.907690943e-06
2.008378432e-06
2.092888278e-06
2.165495436e-06
2.22896736e-06
2.285200112e-06
2.33555014e-06
2.381021609e-06
2.422378952e-06
2.460217902e-06
2.495012199e-06
2.527145327e-06
2.556932722e-06
2.58463766e-06
2.610482885e-06
2.634659247e-06
2.657332239e-06
2.678647012e-06
2.698732315e-06
2.717703516e-06
2.7356652e-06
2.752713325e-06
2.768937209e-06
2.784419309e-06
2.799253584e-06
2.81341124e-06
2.827682797e-06
2.838076168e-06
2.863965171e-06
2.832619457e-06
2.938883954e-06
2.93026314e-06
3.423010101e-06
4.580964704e-06
0.0002416483877
0.0003577836428
9.924328507e-07
1.391809409e-06
1.622639865e-06
1.783632486e-06
1.907748624e-06
2.008542015e-06
2.09315652e-06
2.165866605e-06
2.229439264e-06
2.285769945e-06
2.336214302e-06
2.381775532e-06
2.423216933e-06
2.461132976e-06
2.495996044e-06
2.528188221e-06
2.558023536e-06
2.585763911e-06
2.611630833e-06
2.635814047e-06
2.658478139e-06
2.679767611e-06
2.699810805e-06
2.718723027e-06
2.736609259e-06
2.753566314e-06
2.76968496e-06
2.785048044e-06
2.799761201e-06
2.813737792e-06
2.828132619e-06
2.83698797e-06
2.869400719e-06
2.810263197e-06
3.01888976e-06
2.730045876e-06
1.162724939e-06
1.232029165e-05
0.0002713995185
0.0003875790002
9.922485649e-07
1.391516851e-06
1.622496555e-06
1.783611051e-06
1.907846696e-06
2.008758902e-06
2.09349095e-06
2.166316874e-06
2.230003282e-06
2.286444987e-06
2.336996814e-06
2.382660919e-06
2.424199372e-06
2.462205258e-06
2.497149463e-06
2.529412516e-06
2.559306882e-06
2.587092973e-06
2.612990872e-06
2.637189085e-06
2.659851185e-06
2.681120925e-06
2.701126177e-06
2.719982215e-06
2.737794395e-06
2.754660302e-06
2.77067253e-06
2.785912402e-06
2.800514242e-06
2.814219703e-06
2.829207683e-06
2.834355704e-06
2.881262149e-06
2.771335566e-06
3.125678313e-06
2.46363543e-06
1.591232192e-06
2.222785457e-05
0.0003017352197
0.0004188157615
9.920631062e-07
1.391223953e-06
1.622370312e-06
1.783621538e-06
1.907990924e-06
2.009036032e-06
2.093899764e-06
2.166855787e-06
2.230670414e-06
2.287237823e-06
2.337911962e-06
2.383693873e-06
2.425344285e-06
2.46345476e-06
2.498494526e-06
2.530842379e-06
2.560809037e-06
2.588653215e-06
2.614593417e-06
2.63881675e-06
2.661485624e-06
2.682742905e-06
2.702715963e-06
2.721519996e-06
2.739260694e-06
2.756036317e-06
2.771941386e-06
2.787054584e-06
2.801549458e-06
2.814923479e-06
2.830829245e-06
2.830620828e-06
2.8983557e-06
2.721537449e-06
3.232656487e-06
2.260633527e-06
2.256208982e-06
3.32764926e-05
0.0003323730881
0.0004515758572
9.918776262e-07
1.39093326e-06
1.622264995e-06
1.783669066e-06
1.908187673e-06
2.009381044e-06
2.094391979e-06
2.167493899e-06
2.231452837e-06
2.288162409e-06
2.338975639e-06
2.384892362e-06
2.426671841e-06
2.464903954e-06
2.500056085e-06
2.532505093e-06
2.562559732e-06
2.590476803e-06
2.616473017e-06
2.640733886e-06
2.663420476e-06
2.68467463e-06
2.704623124e-06
2.723380959e-06
2.741054085e-06
2.757741477e-06
2.773539265e-06
2.788525044e-06
2.802898173e-06
2.81601123e-06
2.832355499e-06
2.829349586e-06
2.90577676e-06
2.711340272e-06
3.214033572e-06
2.300936948e-06
3.75726118e-06
4.536297344e-05
0.0003631799005
0.0004860620267
9.916934363e-07
1.390647668e-06
1.622184886e-06
1.78375926e-06
1.908443905e-06
2.009802309e-06
2.094977478e-06
2.168242813e-06
2.232363995e-06
2.289234192e-06
2.340205486e-06
2.3862764e-06
2.428204582e-06
2.466578046e-06
2.501862108e-06
2.534431454e-06
2.564592616e-06
2.592600226e-06
2.61866895e-06
2.642982468e-06
2.665700287e-06
2.686963086e-06
2.706896879e-06
2.725616325e-06
2.743227516e-06
2.759830101e-06
2.775521767e-06
2.790379389e-06
2.80462226e-06
2.817500349e-06
2.834106076e-06
2.828813117e-06
2.914862593e-06
2.677816453e-06
3.343349586e-06
1.997872071e-06
3.902875377e-06
6.095492508e-05
0.0003937101787
0.0005225619577
9.915120135e-07
1.390370453e-06
1.622134706e-06
1.783898259e-06
1.908767189e-06
2.010308969e-06
2.095667056e-06
2.169115173e-06
2.23341866e-06
2.290470251e-06
2.341621082e-06
2.387868277e-06
2.429967709e-06
2.468505312e-06
2.503944078e-06
2.536656235e-06
2.566945796e-06
2.595064915e-06
2.621225919e-06
2.645610379e-06
2.668375998e-06
2.689662081e-06
2.709593702e-06
2.72828502e-06
2.74584214e-06
2.762365212e-06
2.77795346e-06
2.792682836e-06
2.806792063e-06
2.819438783e-06
2.83617757e-06
2.829604413e-06
2.918480928e-06
2.674204249e-06
3.36725512e-06
1.806528002e-06
5.466823997e-06
5.787015759e-06
0.0004258766805
0.0005609764113
9.91335002e-07
1.390105279e-06
1.62211962e-06
1.784092725e-06
1.90916572e-06
2.0109109e-06
2.096472416e-06
2.170124709e-06
2.234632986e-06
2.291889405e-06
2.343244144e-06
2.389692847e-06
2.431989434e-06
2.47071752e-06
2.506337478e-06
2.539218741e-06
2.569662459e-06
2.597917945e-06
2.624194844e-06
2.648672308e-06
2.671505918e-06
2.692833346e-06
2.712778526e-06
2.731454956e-06
2.74896861e-06
2.765419995e-06
2.780909554e-06
2.795513005e-06
2.809482635e-06
2.821918182e-06
2.838659431e-06
2.831225357e-06
2.921656118e-06
2.676469347e-06
3.328659749e-06
2.196710581e-06
5.315987183e-06
1.723484931e-05
0.0004592266277
0.00060121343
9.911641999e-07
1.389856188e-06
1.62214521e-06
1.784349803e-06
1.909648277e-06
2.011618676e-06
2.097406219e-06
2.171286339e-06
2.236024531e-06
2.29351225e-06
2.345098636e-06
2.391777746e-06
2.434301336e-06
2.473250406e-06
2.50908237e-06
2.542163468e-06
2.572791613e-06
2.601212853e-06
2.627633774e-06
2.652230753e-06
2.675156843e-06
2.696547753e-06
2.716526068e-06
2.73520445e-06
2.752688623e-06
2.769079318e-06
2.784477994e-06
2.79895981e-06
2.812789457e-06
2.825021141e-06
2.841667847e-06
2.833919211e-06
2.923316942e-06
2.683193742e-06
3.320764246e-06
2.180069709e-06
6.729240614e-06
2.996119803e-05
0.0004926681169
0.0006433704419
9.910015288e-07
1.389627605e-06
1.622217443e-06
1.784677066e-06
1.910224136e-06
2.012443492e-06
2.098482028e-06
2.172616251e-06
2.237612294e-06
2.295361178e-06
2.347210818e-06
2.394153482e-06
2.436938542e-06
2.47614403e-06
2.51222395e-06
2.545540882e-06
2.576389038e-06
2.605010758e-06
2.631609099e-06
2.656357291e-06
2.679405414e-06
2.70088679e-06
2.720922394e-06
2.739623893e-06
2.757096694e-06
2.773441648e-06
2.788761334e-06
2.803127945e-06
2.81683243e-06
2.828788152e-06
2.845765546e-06
2.83536789e-06
2.934413482e-06
2.659192698e-06
3.400029768e-06
2.170192205e-06
7.726790236e-06
4.307951744e-05
0.0005259839013
0.0006874484561
9.908490439e-07
1.389424504e-06
1.622342725e-06
1.785082525e-06
1.910903095e-06
2.013397204e-06
2.099714121e-06
2.174131749e-06
2.239416956e-06
2.29746062e-06
2.349609452e-06
2.396853677e-06
2.439940019e-06
2.479443149e-06
2.51581313e-06
2.549408285e-06
2.580518515e-06
2.609381944e-06
2.636197396e-06
2.661134513e-06
2.684340097e-06
2.705944591e-06
2.726067028e-06
2.744817933e-06
2.762302423e-06
2.778621463e-06
2.793879014e-06
2.808141881e-06
2.821737023e-06
2.833396488e-06
2.85073649e-06
2.837949205e-06
2.943920712e-06
2.648252601e-06
3.439940357e-06
2.068494639e-06
4.492547948e-07
6.093527586e-05
0.000558801367
0.0007333266844
9.907090584e-07
1.389252639e-06
1.622528066e-06
1.785574757e-06
1.911695588e-06
2.014492474e-06
2.101117791e-06
2.175851401e-06
2.241461063e-06
2.299837524e-06
2.352326448e-06
2.399915954e-06
2.443349673e-06
2.483198381e-06
2.519907699e-06
2.553831113e-06
2.585253448e-06
2.614407794e-06
2.641487869e-06
2.666658885e-06
2.690064155e-06
2.711830905e-06
2.732075907e-06
2.750908463e-06
2.768433517e-06
2.784752298e-06
2.799970897e-06
2.81414602e-06
2.827667027e-06
2.838935618e-06
2.85713581e-06
2.83991859e-06
2.960119363e-06
2.621068283e-06
3.530002718e-06
1.699627845e-06
3.220011098e-06
8.095195791e-05
0.0005906769698
0.0007812377729
9.905842826e-07
1.389118067e-06
1.62278093e-06
1.78616284e-06
1.912612676e-06
2.015742859e-06
2.102709677e-06
2.177795514e-06
2.243769381e-06
2.302522036e-06
2.355398022e-06
2.403383225e-06
2.44721779e-06
2.487467975e-06
2.524574429e-06
2.55888521e-06
2.590679084e-06
2.62018296e-06
2.647584624e-06
2.673043475e-06
2.696698773e-06
2.718674502e-06
2.739084988e-06
2.758038316e-06
2.775639416e-06
2.791990287e-06
2.807200314e-06
2.821312523e-06
2.834797516e-06
2.84562924e-06
2.864976003e-06
2.84234647e-06
2.979801734e-06
2.589796793e-06
3.622511661e-06
1.476996605e-06
5.732283371e-06
1.734379532e-07
0.0006218127706
0.0008316448918
9.904776875e-07
1.389025579e-06
1.623108351e-06
1.786855676e-06
1.91366548e-06
2.017162336e-06
2.104507378e-06
2.17998613e-06
2.246369259e-06
2.305547711e-06
2.358864904e-06
2.407304306e-06
2.451602084e-06
2.492319387e-06
2.529891114e-06
2.564658893e-06
2.596894394e-06
2.626817166e-06
2.654608069e-06
2.680419571e-06
2.704385419e-06
2.726625958e-06
2.747253197e-06
2.766374264e-06
2.784094468e-06
2.800517407e-06
2.815757881e-06
2.829841445e-06
2.843341865e-06
2.853704674e-06
2.874464015e-06
2.84563939e-06
3.002884146e-06
2.554045222e-06
3.730984717e-06
1.270748401e-06
6.372552728e-06
1.528220622e-05
0.0006560500633
0.0008842864373
9.90392137e-07
1.388978316e-06
1.623516412e-06
1.787661479e-06
1.914864654e-06
2.018764733e-06
2.106528799e-06
2.182446228e-06
2.249289826e-06
2.308950946e-06
2.362771969e-06
2.411733649e-06
2.456567481e-06
2.497828923e-06
2.535946278e-06
2.571253497e-06
2.604013775e-06
2.634437905e-06
2.662698313e-06
2.688939675e-06
2.713288466e-06
2.73586008e-06
2.756764443e-06
2.776108745e-06
2.793999955e-06
2.810544255e-06
2.825865132e-06
2.839963867e-06
2.853561091e-06
2.863373161e-06
2.886095904e-06
2.849465842e-06
3.030965783e-06
2.51388643e-06
3.846564434e-06
1.089250468e-06
7.641068639e-06
3.016586368e-05
0.0006903009321
0.0009391016001
9.903303127e-07
1.388981466e-06
1.624012042e-06
1.78858899e-06
1.91622135e-06
2.020564507e-06
2.108792757e-06
2.185200176e-06
2.252562314e-06
2.312771238e-06
2.367168415e-06
2.416731415e-06
2.462186465e-06
2.504082724e-06
2.542840783e-06
2.578785412e-06
2.612169754e-06
2.643194123e-06
2.672020301e-06
2.698783275e-06
2.723601025e-06
2.746582542e-06
2.767834792e-06
2.787466193e-06
2.805588443e-06
2.822313131e-06
2.837776914e-06
2.85195017e-06
2.865741964e-06
2.874977285e-06
2.900041579e-06
2.855024882e-06
3.061094351e-06
2.480047704e-06
3.956170914e-06
9.729599455e-07
9.314104063e-06
4.855878137e-05
0.0007241824486
0.0009961991217
9.902947911e-07
1.389046056e-06
1.62460515e-06
1.789649138e-06
1.917748827e-06
2.022578428e-06
2.11132084e-06
2.188275821e-06
2.256222431e-06
2.317053914e-06
2.372110949e-06
2.422367303e-06
2.468543593e-06
2.511181826e-06
2.550693406e-06
2.587392214e-06
2.621519476e-06
2.653262798e-06
2.682770779e-06
2.710165769e-06
2.735555038e-06
2.759039703e-06
2.780722647e-06
2.800714232e-06
2.819134725e-06
2.836106616e-06
2.851787962e-06
2.866111574e-06
2.880225465e-06
2.888883892e-06
2.916691464e-06
2.862803224e-06
3.094345052e-06
2.448096629e-06
4.074874297e-06
8.406859789e-07
1.169570772e-05
6.656913158e-05
0.0007572056149
0.001055676203
9.902874197e-07
1.389184433e-06
1.625306114e-06
1.790853327e-06
1.919461318e-06
2.024825075e-06
2.114137566e-06
2.191705362e-06
2.260311999e-06
2.321852598e-06
2.377667097e-06
2.428724973e-06
2.475740912e-06
2.519248513e-06
2.559648247e-06
2.597241131e-06
2.632254173e-06
2.664859437e-06
2.695189098e-06
2.723349253e-06
2.749432713e-06
2.773530099e-06
2.795739219e-06
2.816173225e-06
2.83496539e-06
2.852257279e-06
2.868241013e-06
2.88281239e-06
2.897383441e-06
2.905659313e-06
2.935799049e-06
2.876967454e-06
3.115648102e-06
2.474989157e-06
4.060035216e-06
8.218123523e-07
1.090537498e-06
8.861364067e-05
0.000788927533
0.001117286158
9.903088611e-07
1.389402291e-06
1.626120994e-06
1.792209785e-06
1.921370978e-06
2.027322289e-06
2.117268306e-06
2.195523761e-06
2.264877928e-06
2.327228857e-06
2.383915642e-06
2.435903473e-06
2.483900316e-06
2.528429836e-06
2.569879662e-06
2.608535646e-06
2.644607616e-06
2.678248409e-06
2.709569566e-06
2.738655988e-06
2.765580773e-06
2.790419547e-06
2.813262828e-06
2.834227768e-06
2.853467155e-06
2.871153783e-06
2.887532688e-06
2.902471859e-06
2.91764916e-06
2.925935034e-06
2.957331597e-06
2.90091187e-06
3.114505054e-06
2.603098529e-06
3.785884277e-06
1.104472389e-06
3.9039732e-06
0.0001145648684
0.0008184183552
0.001180977076
9.903598969e-07
1.389702063e-06
1.627053439e-06
1.793724754e-06
1.923488694e-06
2.03008777e-06
2.120739753e-06
2.19976915e-06
2.269972735e-06
2.333252979e-06
2.390948045e-06
2.444019053e-06
2.493166057e-06
2.538901181e-06
2.581597279e-06
2.621522415e-06
2.658865517e-06
2.693755428e-06
2.726277148e-06
2.756486999e-06
2.784430608e-06
2.810161695e-06
2.833759289e-06
2.855345657e-06
2.875102357e-06
2.893251389e-06
2.91012169e-06
2.925556017e-06
2.941610015e-06
2.949897143e-06
2.984468923e-06
2.921731682e-06
3.156687113e-06
2.590636739e-06
3.878863036e-06
1.004209254e-06
7.131339208e-06
9.406778482e-05
0.0008459118079
0.001247263629
9.904423418e-07
1.390091983e-06
1.628110462e-06
1.795407173e-06
1.925828511e-06
2.033143484e-06
2.12458443e-06
2.204487544e-06
2.275659574e-06
2.340009506e-06
2.398874956e-06
2.453212645e-06
2.503713361e-06
2.550876045e-06
2.595056825e-06
2.636503178e-06
2.675379189e-06
2.711784238e-06
2.745768468e-06
2.777348221e-06
2.806528907e-06
2.833330715e-06
2.857813619e-06
2.880105469e-06
2.900430088e-06
2.919086684e-06
2.936534282e-06
2.952607253e-06
2.96985014e-06
2.978374435e-06
3.016996717e-06
2.946977969e-06
3.214226431e-06
2.517749996e-06
4.297858775e-06
1.203819042e-07
7.362037714e-06
1.181221675e-05
0.0008769617937
0.001316067933
9.905574984e-07
1.390583325e-06
1.629301272e-06
1.797268831e-06
1.928408997e-06
2.036518108e-06
2.128844106e-06
2.209737219e-06
2.28201767e-06
2.347603789e-06
2.407834037e-06
2.463659757e-06
2.515760648e-06
2.564620485e-06
2.610576582e-06
2.653853139e-06
2.694586016e-06
2.73283957e-06
2.768618572e-06
2.801882784e-06
2.832576353e-06
2.86066493e-06
2.886174483e-06
2.909235829e-06
2.930134934e-06
2.949293415e-06
2.967369959e-06
2.984251114e-06
3.002928929e-06
3.012816897e-06
3.052847802e-06
2.9927927e-06
3.216065917e-06
2.705722382e-06
3.990771012e-06
5.018968089e-07
8.309954786e-06
2.553090362e-05
0.0009077252213
0.00138741399
9.907056497e-07
1.391184417e-06
1.630633373e-06
1.799321878e-06
1.931252112e-06
2.040247138e-06
2.133570935e-06
2.215590955e-06
2.289145979e-06
2.356167556e-06
2.417997464e-06
2.475580907e-06
2.529583727e-06
2.580471803e-06
2.628561616e-06
2.674051953e-06
2.717047976e-06
2.757573142e-06
2.795574661e-06
2.830931134e-06
2.863493259e-06
2.893135631e-06
2.91982178e-06
2.943674632e-06
2.965070275e-06
2.984621497e-06
3.003317056e-06
3.021107961e-06
3.041809046e-06
3.053324326e-06
3.097105639e-06
3.040417936e-06
3.265899634e-06
2.778310877e-06
3.767275778e-06
1.681006925e-06
9.517667686e-06
4.007084419e-05
0.0009374411069
0.001461305717
9.908876403e-07
1.391903833e-06
1.632114023e-06
1.801579954e-06
1.93438495e-06
2.044375458e-06
2.138830989e-06
2.222141066e-06
2.297170884e-06
2.365871377e-06
2.429591623e-06
2.489270601e-06
2.545556275e-06
2.598894133e-06
2.649577148e-06
2.69777801e-06
2.743570406e-06
2.786929589e-06
2.827731278e-06
2.865726629e-06
2.900627248e-06
2.932154488e-06
2.960156905e-06
2.984726943e-06
3.006374074e-06
3.02600513e-06
3.04515875e-06
3.063846107e-06
3.08767947e-06
3.09922122e-06
3.157458617e-06
3.080715512e-06
3.357778294e-06
2.786316555e-06
4.095434472e-06
7.760472397e-07
1.078068174e-05
5.493543903e-05
0.000965619842
0.001537712295
9.911048445e-07
1.392752657e-06
1.633751989e-06
1.804060913e-06
1.937844653e-06
2.048965032e-06
2.144715834e-06
2.229517113e-06
2.3062737e-06
2.376967438e-06
2.442961791e-06
2.50518859e-06
2.564271286e-06
2.620637585e-06
2.674542257e-06
2.726135069e-06
2.775464495e-06
2.822455784e-06
2.866892985e-06
2.908317129e-06
2.946232492e-06
2.98009814e-06
3.009537752e-06
3.034565407e-06
3.055898496e-06
3.074893481e-06
3.093957915e-06
3.113544418e-06
3.140492252e-06
3.156406155e-06
3.220437913e-06
3.154123539e-06
3.432384239e-06
2.871559929e-06
4.195927705e-06
7.503429356e-07
1.28844267e-05
6.986471297e-05
0.0009926515959
0.001616776289
9.913601292e-07
1.393746776e-06
1.635561751e-06
1.806795806e-06
1.941694405e-06
2.054120987e-06
2.151380949e-06
2.237940314e-06
2.316764975e-06
2.38988535e-06
2.458683185e-06
2.524067543e-06
2.586621542e-06
2.646754933e-06
2.70463249e-06
2.760404266e-06
2.814134251e-06
2.865776232e-06
2.914933603e-06
2.96099409e-06
3.003057691e-06
3.04013189e-06
3.071419984e-06
3.096682466e-06
3.116888743e-06
3.134034074e-06
3.151948329e-06
3.171591798e-06
3.203442063e-06
3.221733426e-06
3.302528237e-06
3.240529293e-06
3.511888265e-06
3.04893495e-06
4.243818228e-06
7.449816783e-07
1.481995546e-05
8.47101885e-05
0.001016797236
0.001698553942
9.916702873e-07
1.394923645e-06
1.637585637e-06
1.809862433e-06
1.94606581e-06
2.060046876e-06
2.159102642e-06
2.247764018e-06
2.32907437e-06
2.405108072e-06
2.477219162e-06
2.546218038e-06
2.612617268e-06
2.676663625e-06
2.738517437e-06
2.798441847e-06
2.856622e-06
2.91345478e-06
2.967809937e-06
3.020178044e-06
3.068287531e-06
3.110283088e-06
3.145048325e-06
3.171618651e-06
3.190914152e-06
3.205702819e-06
3.22160044e-06
3.241107938e-06
3.278854809e-06
3.300334688e-06
3.411657226e-06
3.321158771e-06
3.710681164e-06
3.073576372e-06
4.326283317e-06
1.822110854e-06
2.121309423e-05
0.0001137572087
0.001040735611
0.001783106141
9.92091168e-07
1.396350433e-06
1.639890627e-06
1.813368356e-06
1.951086716e-06
2.066874439e-06
2.167924626e-06
2.258814888e-06
2.342614534e-06
2.421339485e-06
2.496183937e-06
2.567814517e-06
2.63678389e-06
2.702355647e-06
2.766377507e-06
2.829434759e-06
2.891501485e-06
2.954171703e-06
3.013054537e-06
3.0745426e-06
3.130807193e-06
3.177478691e-06
3.215492855e-06
3.243530085e-06
3.262286601e-06
3.275613635e-06
3.291500589e-06
3.314588054e-06
3.361718823e-06
3.400940236e-06
3.536164866e-06
3.464438094e-06
3.914063676e-06
3.101653191e-06
4.992040387e-06
1.456132185e-06
1.175025853e-05
8.845289001e-05
0.001060854078
0.001870493684
9.926390804e-07
1.397860579e-06
1.642115467e-06
1.816728207e-06
1.95579639e-06
2.072943626e-06
2.175182279e-06
2.267029252e-06
2.351544076e-06
2.430806198e-06
2.506437042e-06
2.58027604e-06
2.654058898e-06
2.723813637e-06
2.800830678e-06
2.884759374e-06
2.971532919e-06
3.062569722e-06
3.142550496e-06
3.231098575e-06
3.300416972e-06
3.336112901e-06
3.349194748e-06
3.345999002e-06
3.333787039e-06
3.322434632e-06
3.32658411e-06
3.34728765e-06
3.413916898e-06
3.486495144e-06
3.676739696e-06
3.651783014e-06
4.145421341e-06
3.39188584e-06
5.414963259e-06
1.444571717e-06
2.479779965e-05
0.0001534547407
0.001077738959
0.001960406843
9.92643268e-07
1.397652588e-06
1.641395464e-06
1.815641312e-06
1.954621261e-06
2.070226739e-06
2.170950039e-06
2.261572698e-06
2.346828168e-06
2.43214881e-06
2.525179962e-06
2.635899067e-06
2.770186623e-06
2.916504835e-06
3.112258257e-06
3.34550527e-06
3.594195982e-06
3.850248991e-06
4.072818335e-06
4.285961365e-06
4.402052297e-06
4.372131945e-06
4.229425218e-06
4.02027014e-06
3.796942622e-06
3.604944843e-06
3.481020551e-06
3.40829755e-06
3.450295027e-06
3.508896534e-06
3.752877099e-06
3.827757347e-06
4.442139148e-06
3.88466362e-06
5.527106805e-06
1.896960535e-06
1.101927277e-05
8.101000761e-05
0.001092791893
0.002053377948
9.894299598e-07
1.390056147e-06
1.630215411e-06
1.800319846e-06
1.939912763e-06
2.052280498e-06
2.158281853e-06
2.266758537e-06
2.394414509e-06
2.565185502e-06
2.811149762e-06
3.164219624e-06
3.630587071e-06
4.18054132e-06
4.88536237e-06
5.688809441e-06
6.530840172e-06
7.37929945e-06
8.14700711e-06
8.789003598e-06
9.069051376e-06
8.850114131e-06
8.196275612e-06
7.276445712e-06
6.303175994e-06
5.450817736e-06
4.813545618e-06
4.355858438e-06
4.148737666e-06
3.921327424e-06
3.987704931e-06
3.927587058e-06
4.669552802e-06
4.31469338e-06
6.049428282e-06
2.483917007e-06
2.189522014e-05
0.0001487278447
0.001108292145
0.002149191539
9.823478213e-07
1.375540523e-06
1.61677892e-06
1.791840897e-06
1.967023034e-06
2.116364432e-06
2.308805785e-06
2.571612134e-06
2.964466575e-06
3.56360152e-06
4.449319501e-06
5.668883191e-06
7.187012086e-06
8.926570901e-06
1.095380215e-05
1.313725494e-05
1.540151288e-05
1.769317021e-05
1.98246975e-05
2.148541539e-05
2.213635086e-05
2.147873099e-05
1.96344969e-05
1.706453745e-05
1.436434974e-05
1.200621865e-05
1.019637794e-05
8.927779031e-06
8.092193578e-06
7.176158685e-06
6.435587292e-06
5.072622812e-06
4.570667523e-06
4.691408905e-06
6.915442757e-06
2.635755696e-06