/*--------------------------------*- C++ -*----------------------------------*\
| =========                 |                                                 |
| \\      /  F ield         | OpenFOAM: The Open Source CFD Toolbox           |
|  \\    /   O peration     | Version:  v1912                                 |
|   \\  /    A nd           | Website:  www.openfoam.com                      |
|    \\/     M anipulation  |                                                 |
\*---------------------------------------------------------------------------*/
FoamFile
{
    version     2.0;
    format      ascii;
    class       volScalarField;
    location    "0.9";
    object      nut.gas;
}
// * * * * * * * * * * * * * * * * * * * * * * * * * * * * * * * * * * * * * //

dimensions      [0 2 -1 0 0 0 0];


internalField   nonuniform List<scalar> 
4800
(
1.486755658e-08
3.043774158e-08
4.238665033e-08
5.268973885e-08
6.213007247e-08
7.112047933e-08
7.992996019e-08
8.875453759e-08
9.774658322e-08
1.070290417e-07
1.167030176e-07
1.26852155e-07
1.375453573e-07
1.488386449e-07
1.607766013e-07
1.733936736e-07
1.867154946e-07
2.007603344e-07
2.155407495e-07
2.310654712e-07
2.473415583e-07
2.643768259e-07
2.821825581e-07
3.007765113e-07
3.201862358e-07
3.40452772e-07
3.616347838e-07
3.838131637e-07
4.07097001e-07
4.316281665e-07
4.575979408e-07
4.852453761e-07
5.147462566e-07
5.47646177e-07
5.784966521e-07
6.306770686e-07
6.400913767e-07
7.612683628e-07
5.548380372e-07
1.108941886e-06
2.320858555e-08
4.76325254e-08
6.637604109e-08
8.231949127e-08
9.650614389e-08
1.094379608e-07
1.214087673e-07
1.326098309e-07
1.431745404e-07
1.532007148e-07
1.627629544e-07
1.71920018e-07
1.807194881e-07
1.892008641e-07
1.973976926e-07
2.053390816e-07
2.130508037e-07
2.205561179e-07
2.27876392e-07
2.350315808e-07
2.420405999e-07
2.48921623e-07
2.556923267e-07
2.623700987e-07
2.689722258e-07
2.755160648e-07
2.820192423e-07
2.884996302e-07
2.949769319e-07
3.014629887e-07
3.080196538e-07
3.144577399e-07
3.216941622e-07
3.263577497e-07
3.395603998e-07
3.28146754e-07
3.781013608e-07
2.973659189e-07
3.640664558e-07
1.584861037e-06
2.255764135e-08
4.626484757e-08
6.445944716e-08
7.994116961e-08
9.372541408e-08
1.063005321e-07
1.179521745e-07
1.288661228e-07
1.391716997e-07
1.489634512e-07
1.583131202e-07
1.672767721e-07
1.758992853e-07
1.842173137e-07
1.922613141e-07
2.000569771e-07
2.076262635e-07
2.1498817e-07
2.221593069e-07
2.2915434e-07
2.359863332e-07
2.426670187e-07
2.492070129e-07
2.556159928e-07
2.619028436e-07
2.680757891e-07
2.741425246e-07
2.801102563e-07
2.8598649e-07
2.917744504e-07
2.975047585e-07
3.030477836e-07
3.09124842e-07
3.124191766e-07
3.265990742e-07
3.016049466e-07
3.861794302e-07
1.543085777e-07
5.506070945e-07
1.807022963e-06
2.261518117e-08
4.639425947e-08
6.464646554e-08
8.017694523e-08
9.400370082e-08
1.066163768e-07
1.183014284e-07
1.292451875e-07
1.395773841e-07
1.493928796e-07
1.587636736e-07
1.677460499e-07
1.763850805e-07
1.847175963e-07
1.927742204e-07
2.005808031e-07
2.081594603e-07
2.155293404e-07
2.227072031e-07
2.297078604e-07
2.365445203e-07
2.432290565e-07
2.497722256e-07
2.561838458e-07
2.624729478e-07
2.686479144e-07
2.747166133e-07
2.806865342e-07
2.865649383e-07
2.923590073e-07
2.980779602e-07
3.037086695e-07
3.094479948e-07
3.139925787e-07
3.246887e-07
3.0864682e-07
3.693898674e-07
3.104630594e-07
8.067560622e-07
1.974037179e-06
2.260815872e-08
4.637759236e-08
6.462292947e-08
8.014765998e-08
9.396958236e-08
1.065781706e-07
1.182597609e-07
1.292005987e-07
1.395303502e-07
1.493438222e-07
1.587129658e-07
1.676940194e-07
1.763320107e-07
1.846637263e-07
1.927197444e-07
2.005258688e-07
2.081041666e-07
2.154737362e-07
2.226512841e-07
2.296515667e-07
2.364877328e-07
2.431715924e-07
2.497138325e-07
2.561241927e-07
2.624116121e-07
2.685843623e-07
2.746501667e-07
2.806163636e-07
2.864897451e-07
2.92278405e-07
2.979841745e-07
3.036252535e-07
3.092598139e-07
3.141531831e-07
3.232321681e-07
3.131884079e-07
3.685116938e-07
1.145959908e-07
8.775908362e-07
2.13011044e-06
2.260719012e-08
4.637568644e-08
6.462153416e-08
8.014683423e-08
9.396945153e-08
1.065788307e-07
1.182612779e-07
1.292030165e-07
1.395336945e-07
1.493481014e-07
1.587181698e-07
1.677001186e-07
1.763389545e-07
1.846714414e-07
1.927281327e-07
2.005348059e-07
2.081135005e-07
2.154832853e-07
2.226608363e-07
2.296608776e-07
2.364965242e-07
2.4317955e-07
2.497206023e-07
2.56129376e-07
2.624147578e-07
2.685849517e-07
2.74647594e-07
2.806099157e-07
2.864784705e-07
2.922617425e-07
2.97956594e-07
3.036094102e-07
3.091209621e-07
3.145036057e-07
3.215829299e-07
3.186842704e-07
3.507219805e-07
2.074032234e-07
8.678977678e-07
2.278314289e-06
2.260554927e-08
4.63719938e-08
6.461763205e-08
8.014290801e-08
9.396574003e-08
1.065755255e-07
1.182585263e-07
1.292009329e-07
1.39532366e-07
1.49347589e-07
1.587185085e-07
1.677013162e-07
1.763409897e-07
1.846742617e-07
1.927316527e-07
2.00538905e-07
2.081180211e-07
2.154880314e-07
2.226655715e-07
2.296653242e-07
2.365003612e-07
2.431824113e-07
2.497220737e-07
2.561289915e-07
2.624119934e-07
2.685792138e-07
2.746382034e-07
2.805960825e-07
2.864592175e-07
2.922367123e-07
2.979169083e-07
3.036075691e-07
3.088444344e-07
3.153376782e-07
3.187765555e-07
3.240356632e-07
3.40960488e-07
3.203574036e-07
9.337783469e-07
2.403423574e-06
2.260391033e-08
4.636830624e-08
6.461398237e-08
8.013947831e-08
9.396277892e-08
1.065732307e-07
1.182570472e-07
1.292003834e-07
1.395328299e-07
1.493491212e-07
1.58721135e-07
1.677050319e-07
1.763457568e-07
1.846800073e-07
1.927382662e-07
2.005462362e-07
2.08125878e-07
2.154961786e-07
2.22673729e-07
2.296731664e-07
2.365075158e-07
2.431884586e-07
2.497265453e-07
2.561313677e-07
2.624117016e-07
2.685756229e-07
2.746306068e-07
2.805837291e-07
2.864409051e-07
2.922139458e-07
2.978703586e-07
3.036520325e-07
3.083225701e-07
3.174399372e-07
3.099394134e-07
3.507825554e-07
2.695360206e-07
5.756025465e-07
1.545685358e-06
2.541333658e-06
2.260220094e-08
4.636441811e-08
6.461027062e-08
8.013613828e-08
9.396008413e-08
1.065713984e-07
1.182562407e-07
1.292007267e-07
1.395344136e-07
1.493520038e-07
1.587253419e-07
1.677105541e-07
1.763525481e-07
1.846879814e-07
1.927472944e-07
2.005561448e-07
2.081364462e-07
2.155071369e-07
2.226847586e-07
2.296838981e-07
2.365175306e-07
2.431972877e-07
2.497336705e-07
2.56136222e-07
2.624136697e-07
2.685740447e-07
2.746247568e-07
2.805729357e-07
2.864235139e-07
2.921948938e-07
2.978122481e-07
3.037492666e-07
3.076854457e-07
3.193759564e-07
3.038208783e-07
3.652433972e-07
1.970363081e-07
3.487909774e-07
1.811639649e-06
2.684307575e-06
2.260042951e-08
4.636035764e-08
6.460655186e-08
8.013296924e-08
9.395776336e-08
1.065701631e-07
1.182562686e-07
1.292021526e-07
1.395373353e-07
1.49356484e-07
1.587314069e-07
1.677181918e-07
1.763617048e-07
1.846985591e-07
1.927591474e-07
2.005690772e-07
2.081502098e-07
2.155214298e-07
2.226992246e-07
2.296981268e-07
2.365310582e-07
2.432095992e-07
2.497442023e-07
2.561443647e-07
2.62418772e-07
2.68575422e-07
2.746216833e-07
2.805647306e-07
2.864088244e-07
2.921769304e-07
2.977665948e-07
3.037885548e-07
3.073909845e-07
3.197651156e-07
3.036484623e-07
3.657198189e-07
1.518655188e-07
6.442356582e-07
2.073207094e-06
2.828803346e-06
2.259859671e-08
4.635612926e-08
6.460284268e-08
8.013000165e-08
9.395586269e-08
1.065695888e-07
1.18257215e-07
1.292047673e-07
1.39541726e-07
1.4936272e-07
1.587395178e-07
1.677281647e-07
1.763734814e-07
1.847120316e-07
1.927741555e-07
2.005854051e-07
2.081675839e-07
2.155395178e-07
2.227176346e-07
2.297164088e-07
2.365487061e-07
2.432260537e-07
2.497588563e-07
2.561565691e-07
2.624278425e-07
2.685806487e-07
2.74622345e-07
2.805600771e-07
2.863983742e-07
2.921575813e-07
2.97756274e-07
3.03673623e-07
3.07686485e-07
3.189136233e-07
3.041641957e-07
3.606989327e-07
3.118160916e-07
2.513493281e-07
2.29674397e-06
2.973998655e-06
2.259670539e-08
4.635174426e-08
6.459917111e-08
8.012728196e-08
9.395444852e-08
1.065697638e-07
1.182591926e-07
1.292087104e-07
1.395477545e-07
1.493709123e-07
1.587499096e-07
1.677407454e-07
1.763881904e-07
1.847287543e-07
1.927927194e-07
2.006055765e-07
2.081890662e-07
2.155619497e-07
2.227405904e-07
2.297394003e-07
2.365711854e-07
2.432474186e-07
2.497784565e-07
2.561737161e-07
2.624418188e-07
2.685907169e-07
2.746277808e-07
2.805600777e-07
2.863930218e-07
2.921403508e-07
2.977653028e-07
3.034915025e-07
3.083415979e-07
3.163273082e-07
3.11893445e-07
3.536070109e-07
3.240405566e-07
6.448491992e-07
2.51694334e-06
3.118554595e-06
2.259475951e-08
4.634721713e-08
6.459557045e-08
8.012486423e-08
9.395359742e-08
1.065707894e-07
1.182623302e-07
1.292141405e-07
1.395556125e-07
1.493812892e-07
1.587628501e-07
1.677562443e-07
1.76406188e-07
1.847491321e-07
1.928152956e-07
2.006301024e-07
2.082152238e-07
2.155893507e-07
2.227687769e-07
2.297678465e-07
2.365993023e-07
2.432745602e-07
2.498039289e-07
2.561967893e-07
2.624617376e-07
2.686067143e-07
2.746391127e-07
2.805659453e-07
2.863934512e-07
2.921298796e-07
2.977727e-07
3.033664484e-07
3.087223682e-07
3.150263949e-07
3.147748359e-07
3.512417226e-07
4.058766311e-07
8.833817993e-07
2.72039709e-06
3.26266396e-06
2.259276432e-08
4.634256619e-08
6.459208036e-08
8.012281162e-08
9.39533981e-08
1.065727822e-07
1.182667748e-07
1.292212391e-07
1.395655189e-07
1.493941105e-07
1.58778644e-07
1.677750147e-07
1.764278801e-07
1.847736268e-07
1.928424048e-07
2.006595651e-07
2.082467033e-07
2.156224336e-07
2.228029737e-07
2.298025948e-07
2.366339716e-07
2.433084598e-07
2.498363189e-07
2.562268927e-07
2.624887556e-07
2.686298454e-07
2.746575808e-07
2.805789675e-07
2.86400758e-07
2.921281168e-07
2.977785452e-07
3.032869206e-07
3.089876619e-07
3.139635447e-07
3.180644728e-07
3.363296244e-07
3.134104814e-07
1.118433959e-06
2.90946958e-06
3.407729609e-06
2.259072644e-08
4.633781385e-08
6.458874711e-08
8.012119674e-08
9.395395162e-08
1.065758743e-07
1.182726932e-07
1.292302109e-07
1.395777208e-07
1.494096698e-07
1.587976358e-07
1.677974566e-07
1.764537261e-07
1.848027615e-07
1.928746375e-07
2.006946257e-07
2.082842389e-07
2.156620074e-07
2.228440662e-07
2.298446068e-07
2.366762305e-07
2.433502285e-07
2.498768076e-07
2.562652708e-07
2.625241737e-07
2.686614584e-07
2.746845773e-07
2.806005063e-07
2.864166999e-07
2.921341997e-07
2.977968157e-07
3.031950351e-07
3.093715204e-07
3.123714299e-07
3.228907111e-07
3.270561143e-07
3.584311772e-07
4.556712074e-07
3.097884764e-06
3.553817095e-06
2.258865399e-08
4.633298694e-08
6.458562403e-08
8.012010212e-08
9.395537201e-08
1.065802146e-07
1.182802723e-07
1.292412856e-07
1.395924953e-07
1.494282969e-07
1.588202129e-07
1.678240201e-07
1.764842441e-07
1.848371268e-07
1.929126614e-07
2.007360324e-07
2.083286623e-07
2.157089895e-07
2.228930582e-07
2.29894973e-07
2.36727255e-07
2.434011254e-07
2.499267316e-07
2.563133336e-07
2.625694674e-07
2.687030805e-07
2.74721664e-07
2.80632185e-07
2.864426682e-07
2.921511532e-07
2.978205012e-07
3.031369028e-07
3.096649608e-07
3.111363027e-07
3.272562577e-07
3.15684991e-07
2.089135142e-07
7.058462876e-07
3.282531244e-06
3.700823842e-06
2.258655664e-08
4.632811708e-08
6.45827719e-08
8.011962069e-08
9.395778696e-08
1.065859688e-07
1.18289721e-07
1.292547191e-07
1.396101517e-07
1.494503602e-07
1.588468089e-07
1.678552101e-07
1.765200163e-07
1.848773879e-07
1.929572295e-07
2.007846305e-07
2.083809144e-07
2.157644187e-07
2.229510877e-07
2.299549304e-07
2.367883794e-07
2.434625778e-07
2.499876074e-07
2.56372683e-07
2.626263164e-07
2.687564528e-07
2.747706376e-07
2.806757296e-07
2.864811873e-07
2.921761706e-07
2.978771014e-07
3.029962392e-07
3.10304342e-07
3.089738655e-07
3.329940491e-07
2.998866841e-07
2.44408743e-07
9.369369177e-07
3.460721758e-06
3.848762873e-06
2.258444574e-08
4.632324108e-08
6.458025934e-08
8.011985623e-08
9.396133837e-08
1.065933209e-07
1.183012701e-07
1.292707954e-07
1.396310332e-07
1.494762692e-07
1.588779074e-07
1.678915913e-07
1.765616952e-07
1.849242921e-07
1.930091897e-07
2.008413737e-07
2.084420588e-07
2.158294713e-07
2.230194451e-07
2.300258831e-07
2.368611197e-07
2.435362097e-07
2.500611634e-07
2.564451447e-07
2.626966352e-07
2.688235694e-07
2.748335473e-07
2.807332601e-07
2.865341316e-07
2.922127018e-07
2.979624534e-07
3.027965419e-07
3.11223446e-07
3.061853068e-07
3.386445661e-07
2.872658787e-07
2.910407816e-07
1.141596474e-06
3.631883409e-06
3.997807671e-06
2.25823344e-08
4.631840125e-08
6.457816317e-08
8.012092367e-08
9.396618282e-08
1.066024731e-07
1.183151739e-07
1.292898283e-07
1.396555193e-07
1.495064781e-07
1.589140456e-07
1.679337928e-07
1.766100107e-07
1.849786775e-07
1.930694956e-07
2.009073373e-07
2.085132972e-07
2.159054789e-07
2.230995937e-07
2.301094264e-07
2.369472009e-07
2.436238737e-07
2.501493753e-07
2.565328078e-07
2.627826148e-07
2.689067171e-07
2.749127494e-07
2.808073083e-07
2.866030945e-07
2.922691552e-07
2.980427665e-07
3.027285407e-07
3.116216255e-07
3.056111541e-07
3.376677135e-07
2.898153077e-07
3.755698058e-07
1.330155102e-06
3.796284591e-06
4.14876263e-06
2.258023756e-08
4.631364587e-08
6.457656868e-08
8.012294937e-08
9.397249152e-08
1.066136471e-07
1.183317106e-07
1.293121625e-07
1.396840288e-07
1.495414887e-07
1.58955819e-07
1.679825147e-07
1.766657774e-07
1.850414829e-07
1.93139219e-07
2.009837333e-07
2.085959879e-07
2.1599395e-07
2.231931947e-07
2.302073745e-07
2.370485892e-07
2.437276859e-07
2.502545024e-07
2.566380679e-07
2.628867767e-07
2.690085285e-07
2.750109845e-07
2.8090066e-07
2.86691227e-07
2.923464216e-07
2.98134857e-07
3.026998394e-07
3.121084372e-07
3.03715944e-07
3.44393723e-07
2.700553588e-07
3.828115913e-07
1.539737214e-06
3.952614716e-06
4.302423336e-06
2.257817202e-08
4.63090295e-08
6.457556989e-08
8.012607109e-08
9.398045049e-08
1.066270846e-07
1.183511839e-07
1.293381733e-07
1.397170213e-07
1.495818553e-07
1.590038881e-07
1.680385356e-07
1.767299045e-07
1.851137601e-07
1.932195645e-07
2.01071928e-07
2.086916661e-07
2.160965943e-07
2.233021353e-07
2.303217934e-07
2.371675288e-07
2.438500647e-07
2.50379133e-07
2.567636764e-07
2.630120281e-07
2.691320524e-07
2.751314296e-07
2.810165773e-07
2.868021053e-07
2.924469711e-07
2.982437929e-07
3.027421731e-07
3.123020934e-07
3.035110281e-07
3.456227676e-07
2.567978069e-07
4.529717395e-07
5.591935708e-07
4.111797794e-06
4.458098169e-06
2.257615653e-08
4.630461322e-08
6.45752696e-08
8.013043833e-08
9.399026106e-08
1.066430467e-07
1.183739227e-07
1.293682677e-07
1.397549987e-07
1.496281878e-07
1.590589843e-07
1.681027225e-07
1.768034086e-07
1.851966885e-07
1.933118871e-07
2.011734628e-07
2.088020687e-07
2.162153506e-07
2.234285609e-07
2.304550378e-07
2.37306583e-07
2.439937789e-07
2.505262361e-07
2.569127972e-07
2.631617208e-07
2.692808221e-07
2.75277778e-07
2.811589356e-07
2.869395356e-07
2.92575531e-07
2.983742568e-07
3.028288739e-07
3.124719333e-07
3.036395405e-07
3.436363005e-07
2.831753087e-07
4.466933473e-07
8.502621647e-07
4.269659839e-06
4.615401221e-06
2.257421156e-08
4.63004644e-08
6.457577896e-08
8.01362113e-08
9.40021387e-08
1.066618125e-07
1.184002826e-07
1.294028873e-07
1.397985059e-07
1.49681153e-07
1.591219131e-07
1.681760375e-07
1.768874252e-07
1.852915925e-07
1.934177138e-07
2.012900793e-07
2.089291622e-07
2.163524189e-07
2.235749112e-07
2.306097919e-07
2.374686812e-07
2.441619995e-07
2.506992199e-07
2.570890701e-07
2.63339721e-07
2.694589253e-07
2.754543385e-07
2.813322135e-07
2.87108353e-07
2.927363437e-07
2.985323237e-07
3.029729075e-07
3.125607334e-07
3.040207351e-07
3.432285099e-07
2.821006922e-07
5.025865287e-07
1.097974335e-06
4.422367431e-06
4.774432299e-06
2.257235903e-08
4.629665683e-08
6.457721671e-08
8.014355975e-08
9.401631091e-08
1.066836773e-07
1.184306439e-07
1.294425109e-07
1.398481313e-07
1.49741474e-07
1.591935559e-07
1.682595408e-07
1.769832149e-07
1.853999534e-07
1.935387634e-07
2.014237478e-07
2.090751796e-07
2.165103041e-07
2.237439696e-07
2.307891222e-07
2.376571753e-07
2.443583621e-07
2.509019991e-07
2.572966838e-07
2.635504888e-07
2.696710907e-07
2.756661217e-07
2.815416117e-07
2.87314617e-07
2.929314526e-07
2.987474887e-07
3.030503364e-07
3.13153392e-07
3.02657955e-07
3.473007269e-07
2.81460893e-07
5.385682238e-07
1.306988043e-06
4.569498757e-06
4.934954906e-06
2.257062237e-08
4.629327347e-08
6.457971026e-08
8.015266309e-08
9.403301775e-08
1.067089534e-07
1.184654062e-07
1.29487649e-07
1.399045146e-07
1.498099385e-07
1.592748757e-07
1.683543981e-07
1.770921729e-07
1.855234222e-07
1.936769672e-07
2.015766998e-07
2.09242667e-07
2.166918792e-07
2.239389371e-07
2.309965558e-07
2.378759222e-07
2.445870532e-07
2.511390859e-07
2.575404721e-07
2.637991789e-07
2.699227987e-07
2.759189444e-07
2.81793295e-07
2.875646405e-07
2.931699606e-07
2.990082988e-07
3.031882532e-07
3.136602759e-07
3.020347359e-07
3.493331411e-07
2.747869866e-07
1.316071728e-07
1.547068053e-06
4.70995282e-06
5.096332164e-06
2.256902794e-08
4.629041025e-08
6.458339903e-08
8.016371328e-08
9.405251449e-08
1.067379738e-07
1.185049969e-07
1.295388487e-07
1.399683514e-07
1.498874135e-07
1.593669387e-07
1.684619105e-07
1.77215867e-07
1.85663861e-07
1.93834511e-07
2.017514761e-07
2.094345463e-07
2.169004606e-07
2.241635313e-07
2.312361997e-07
2.381294091e-07
2.448529371e-07
2.514157177e-07
2.578260445e-07
2.640917756e-07
2.702204176e-07
2.762195928e-07
2.820943878e-07
2.878666467e-07
2.934563861e-07
2.993437169e-07
3.032934332e-07
3.145220354e-07
3.004805435e-07
3.538766053e-07
2.490840281e-07
3.480221169e-07
1.778856533e-06
4.842565913e-06
5.259302606e-06
2.256760666e-08
4.62881682e-08
6.458843138e-08
8.017691324e-08
9.407507144e-08
1.067710945e-07
1.185498804e-07
1.295967069e-07
1.400404045e-07
1.499748669e-07
1.594709523e-07
1.68583559e-07
1.773560885e-07
1.85823407e-07
1.940139134e-07
2.019510131e-07
2.096541998e-07
2.171398925e-07
2.244220755e-07
2.315128503e-07
2.384228826e-07
2.451616988e-07
2.517380119e-07
2.581599474e-07
2.644352518e-07
2.705713614e-07
2.765759571e-07
2.824533502e-07
2.882293729e-07
2.93802137e-07
2.997541463e-07
3.034230501e-07
3.1556596e-07
2.986826755e-07
3.584835476e-07
2.321981259e-07
4.638627111e-07
8.199989753e-07
4.970256981e-06
5.424932955e-06
2.256639239e-08
4.628662725e-08
6.459494688e-08
8.019246166e-08
9.410095986e-08
1.068086818e-07
1.186005464e-07
1.296618704e-07
1.401215141e-07
1.500733733e-07
1.595882708e-07
1.687210236e-07
1.775148879e-07
1.860045282e-07
1.942180999e-07
2.021787185e-07
2.099055403e-07
2.174146137e-07
2.247195489e-07
2.318320529e-07
2.3876244e-07
2.45519956e-07
2.521130857e-07
2.585497868e-07
2.648377021e-07
2.709842273e-07
2.769971982e-07
2.82879961e-07
2.886634215e-07
2.942187231e-07
3.002500876e-07
3.035987603e-07
3.167858351e-07
2.966138868e-07
3.638112024e-07
2.153767145e-07
4.890854558e-07
8.503709606e-07
5.105246714e-06
5.59256474e-06
2.256541781e-08
4.628583976e-08
6.460306621e-08
8.02105415e-08
9.413043882e-08
1.068510968e-07
1.186574918e-07
1.29735011e-07
1.402125725e-07
1.501840947e-07
1.597203818e-07
1.688761722e-07
1.776945635e-07
1.862100061e-07
1.944503865e-07
2.024384866e-07
2.101930712e-07
2.177297594e-07
2.250617186e-07
2.322002165e-07
2.391551293e-07
2.459353494e-07
2.52549128e-07
2.590042875e-07
2.653084147e-07
2.714689039e-07
2.774938979e-07
2.833854441e-07
2.891816973e-07
2.947167151e-07
3.008569746e-07
3.038028121e-07
3.182636084e-07
2.942727281e-07
3.694033576e-07
1.994035286e-07
5.355854488e-07
1.125940611e-06
5.237039862e-06
5.76175241e-06
2.256471348e-08
4.628589224e-08
6.461292652e-08
8.023134702e-08
9.416377898e-08
1.068987163e-07
1.187212373e-07
1.298168391e-07
1.403145329e-07
1.503082874e-07
1.598689098e-07
1.690510603e-07
1.778976705e-07
1.864429669e-07
1.947145343e-07
2.02734769e-07
2.105219846e-07
2.180912991e-07
2.254553399e-07
2.326248445e-07
2.39609184e-07
2.464168166e-07
2.530557012e-07
2.59533558e-07
2.658580464e-07
2.720366847e-07
2.780781386e-07
2.839828403e-07
2.897982488e-07
2.953132968e-07
3.015829722e-07
3.040990131e-07
3.198415073e-07
2.922854562e-07
3.746293989e-07
1.884588091e-07
5.91351415e-07
1.400696924e-06
5.364283701e-06
5.932687393e-06
2.25643088e-08
4.628696842e-08
6.462472414e-08
8.025512122e-08
9.420130189e-08
1.069519766e-07
1.187923792e-07
1.299081648e-07
1.40428483e-07
1.504473898e-07
1.600357221e-07
1.692480615e-07
1.781271798e-07
1.867070638e-07
1.950149545e-07
2.03072805e-07
2.10898408e-07
2.1850629e-07
2.259084277e-07
2.331148921e-07
2.401344362e-07
2.469749977e-07
2.53644168e-07
2.601495718e-07
2.664990976e-07
2.727006366e-07
2.787637754e-07
2.846870279e-07
2.90529648e-07
2.960266679e-07
3.024474659e-07
3.04512981e-07
3.215739319e-07
2.903965594e-07
3.802081663e-07
1.751805412e-07
6.626716971e-07
1.62776433e-06
5.48561576e-06
6.10552254e-06
2.256422482e-08
4.628927392e-08
6.463866435e-08
8.028211703e-08
9.424335194e-08
1.070113604e-07
1.188715936e-07
1.300099232e-07
1.405556938e-07
1.506030996e-07
1.602230367e-07
1.694700176e-07
1.783866659e-07
1.870067035e-07
1.953569787e-07
2.034589365e-07
2.113297643e-07
2.189832831e-07
2.264306795e-07
2.336811929e-07
2.407427756e-07
2.476227011e-07
2.543281157e-07
2.608665525e-07
2.672463041e-07
2.73476003e-07
2.795667661e-07
2.85515258e-07
2.913937295e-07
2.968849204e-07
3.034365329e-07
3.052653677e-07
3.226789727e-07
2.919872171e-07
3.79515251e-07
1.732029537e-07
2.047904941e-07
1.86916513e-06
5.599768193e-06
6.279345733e-06
2.25644691e-08
4.629290342e-08
6.465486627e-08
8.03125156e-08
9.429022132e-08
1.070773285e-07
1.189595771e-07
1.301231259e-07
1.406975865e-07
1.507773598e-07
1.604334328e-07
1.697202812e-07
1.786803823e-07
1.873471637e-07
1.957470293e-07
2.039008434e-07
2.118250801e-07
2.195327093e-07
2.270339484e-07
2.343369818e-07
2.414487099e-07
2.483755077e-07
2.55123931e-07
2.617014268e-07
2.681169474e-07
2.743804112e-07
2.80505368e-07
2.864871459e-07
2.92411029e-07
2.979189527e-07
3.04547274e-07
3.065330663e-07
3.226197762e-07
2.994487413e-07
3.66478077e-07
2.007919943e-07
3.837860746e-07
2.119129364e-06
5.704052595e-06
6.453930209e-06
2.256505052e-08
4.629789714e-08
6.467340071e-08
8.034645283e-08
9.43421699e-08
1.07150336e-07
1.190570595e-07
1.302488718e-07
1.408557461e-07
1.509723802e-07
1.606698929e-07
1.700027704e-07
1.790133395e-07
1.877347065e-07
1.961927856e-07
2.044077801e-07
2.123953199e-07
2.201673376e-07
2.277328341e-07
2.350986119e-07
2.422701539e-07
2.492525843e-07
2.560516168e-07
2.626745888e-07
2.691314694e-07
2.754342608e-07
2.816004192e-07
2.876241453e-07
2.936092697e-07
2.991363772e-07
3.059413898e-07
3.076310919e-07
3.247971683e-07
2.987311073e-07
3.709510075e-07
1.914613299e-07
5.176819681e-07
1.848740498e-06
5.801745212e-06
6.63023944e-06
2.256598974e-08
4.630439177e-08
6.469440499e-08
8.038412435e-08
9.439953347e-08
1.072309477e-07
1.191649296e-07
1.303884856e-07
1.410320748e-07
1.511908117e-07
1.609360137e-07
1.703222174e-07
1.793915966e-07
1.881769161e-07
1.96703561e-07
2.049909951e-07
2.13053871e-07
2.209028787e-07
2.285454639e-07
2.359865537e-07
2.432296279e-07
2.50277985e-07
2.571360658e-07
2.638110073e-07
2.703143044e-07
2.766612732e-07
2.828754512e-07
2.889508478e-07
2.950152611e-07
3.005767891e-07
3.076041026e-07
3.089573323e-07
3.277439621e-07
2.944987736e-07
3.90472455e-07
6.629023613e-08
5.257020843e-07
8.658196892e-07
5.907575421e-06
6.808250215e-06
2.256730155e-08
4.631257442e-08
6.471805962e-08
8.04257887e-08
9.446275692e-08
1.073199021e-07
1.192843293e-07
1.305436442e-07
1.412289562e-07
1.514359508e-07
1.612362576e-07
1.706844944e-07
1.79822674e-07
1.886831955e-07
1.972908778e-07
2.056643783e-07
2.138172714e-07
2.217588078e-07
2.294944637e-07
2.370265919e-07
2.443557304e-07
2.514823505e-07
2.584088215e-07
2.651417876e-07
2.716949945e-07
2.780890355e-07
2.843567683e-07
2.904951021e-07
2.966536812e-07
3.023097556e-07
3.094263407e-07
3.113496486e-07
3.278377318e-07
3.052943772e-07
3.762640598e-07
1.353555846e-07
5.585622399e-07
1.093527722e-06
6.010937557e-06
6.987881457e-06
2.256898911e-08
4.632258285e-08
6.474451064e-08
8.047171139e-08
9.453236602e-08
1.074181129e-07
1.194166838e-07
1.307164391e-07
1.414493618e-07
1.517119091e-07
1.61576187e-07
1.710969499e-07
1.803160233e-07
1.892654006e-07
1.979693089e-07
2.064455636e-07
2.147066079e-07
2.227600618e-07
2.306089705e-07
2.382521032e-07
2.456856541e-07
2.529055803e-07
2.599107342e-07
2.667065114e-07
2.733098745e-07
2.797496209e-07
2.860739505e-07
2.9228347e-07
2.985679516e-07
3.043352528e-07
3.116611825e-07
3.138171724e-07
3.303679303e-07
3.093624569e-07
3.655763052e-07
2.477158028e-07
5.97816797e-07
1.313571609e-06
6.109335436e-06
7.169028397e-06
2.257106196e-08
4.633455859e-08
6.477389866e-08
8.052218992e-08
9.460900919e-08
1.075267351e-07
1.195637967e-07
1.309095197e-07
1.416970796e-07
1.520239991e-07
1.61963098e-07
1.715693715e-07
1.808844122e-07
1.899397944e-07
1.987591226e-07
2.073594056e-07
2.157519909e-07
2.239426472e-07
2.319314895e-07
2.397118316e-07
2.472735574e-07
2.546052996e-07
2.616998116e-07
2.685598089e-07
2.752069112e-07
2.816823954e-07
2.880598241e-07
2.943436057e-07
3.008107276e-07
3.066140711e-07
3.146831859e-07
3.158899867e-07
3.349827736e-07
3.098078489e-07
3.811661481e-07
1.683112095e-07
6.362869815e-07
1.510600717e-06
6.201403533e-06
7.351447391e-06
2.257353563e-08
4.634868452e-08
6.480639359e-08
8.057761446e-08
9.469357685e-08
1.076473649e-07
1.197281694e-07
1.311266065e-07
1.419775479e-07
1.523800823e-07
1.624081322e-07
1.721170594e-07
1.815481284e-07
1.907326979e-07
1.996933111e-07
2.084463616e-07
2.17002429e-07
2.25365474e-07
2.335319955e-07
2.414865635e-07
2.49209861e-07
2.566783851e-07
2.638735998e-07
2.707927094e-07
2.774644132e-07
2.839487186e-07
2.903587533e-07
2.967212602e-07
3.033724076e-07
3.094298693e-07
3.17806057e-07
3.196313814e-07
3.386837932e-07
3.145112109e-07
3.858143093e-07
1.655003287e-07
6.956164026e-07
1.687486393e-06
6.288660796e-06
7.535332483e-06
2.257644264e-08
4.636522295e-08
6.484227777e-08
8.063866777e-08
9.478759005e-08
1.077827201e-07
1.199140642e-07
1.313740736e-07
1.423001105e-07
1.527935851e-07
1.629298734e-07
1.727643742e-07
1.82337601e-07
1.916807654e-07
2.008135051e-07
2.097524195e-07
2.185089163e-07
2.270883986e-07
2.354805181e-07
2.436637148e-07
2.516016896e-07
2.59250873e-07
2.665726854e-07
2.735502108e-07
2.802195798e-07
2.866663602e-07
2.930672348e-07
2.994744493e-07
3.063978066e-07
3.126155628e-07
3.21831074e-07
3.239798782e-07
3.425837907e-07
3.240792819e-07
3.880098221e-07
1.649080125e-07
7.460511517e-07
1.847382991e-06
6.365919239e-06
7.720737232e-06
2.257997401e-08
4.638479404e-08
6.48823841e-08
8.07070717e-08
9.489422938e-08
1.079380782e-07
1.20129068e-07
1.316620989e-07
1.426776429e-07
1.532794332e-07
1.635428832e-07
1.735207837e-07
1.832515632e-07
1.927607324e-07
2.02067534e-07
2.111926392e-07
2.201522586e-07
2.289696658e-07
2.376067049e-07
2.460868254e-07
2.543195481e-07
2.622249278e-07
2.697489144e-07
2.768402277e-07
2.835276298e-07
2.899255601e-07
2.962876572e-07
3.027386565e-07
3.099833077e-07
3.164060544e-07
3.271051637e-07
3.279856787e-07
3.521464263e-07
3.253862472e-07
3.917615516e-07
2.579029793e-07
8.925329926e-07
2.125751272e-06
6.441485639e-06
7.907646128e-06
2.258476515e-08
4.640851016e-08
6.492803078e-08
8.078520356e-08
9.501656543e-08
1.081167985e-07
1.203742385e-07
1.319853528e-07
1.430917729e-07
1.537957838e-07
1.641677049e-07
1.74255113e-07
1.840971477e-07
1.936836324e-07
2.030927913e-07
2.123589046e-07
2.214922154e-07
2.305640947e-07
2.394110248e-07
2.482917836e-07
2.568974995e-07
2.650423896e-07
2.727531774e-07
2.799610937e-07
2.86680982e-07
2.930698961e-07
2.994847348e-07
3.061511622e-07
3.138758545e-07
3.211924241e-07
3.330204913e-07
3.349858516e-07
3.616682701e-07
3.268690543e-07
4.208267884e-07
2.305522485e-07
6.644550575e-07
1.889996293e-06
6.505704123e-06
8.095957742e-06
2.259100085e-08
4.643359867e-08
6.497205979e-08
8.086000929e-08
9.513117524e-08
1.082754196e-07
1.205755611e-07
1.322251227e-07
1.43364231e-07
1.540961383e-07
1.645045198e-07
1.746774286e-07
1.846992235e-07
1.944510821e-07
2.043535627e-07
2.14425006e-07
2.24536542e-07
2.347560544e-07
2.445016429e-07
2.545348159e-07
2.637643651e-07
2.715778744e-07
2.783660359e-07
2.84348944e-07
2.898055873e-07
2.95157007e-07
3.010765816e-07
3.076576012e-07
3.163032743e-07
3.252073297e-07
3.39575342e-07
3.439240482e-07
3.722038019e-07
3.418202615e-07
4.382905326e-07
2.296352291e-07
9.650622284e-07
2.457461626e-06
6.5582228e-06
8.285107709e-06
2.25910485e-08
4.643014406e-08
6.495781438e-08
8.083581758e-08
9.510259145e-08
1.082044412e-07
1.204582024e-07
1.320658993e-07
1.432204039e-07
1.541386885e-07
1.651184495e-07
1.76550151e-07
1.886967001e-07
2.012116024e-07
2.154153268e-07
2.309146534e-07
2.4694352e-07
2.632195954e-07
2.783480408e-07
2.931542648e-07
3.046206318e-07
3.108999448e-07
3.128143873e-07
3.116853102e-07
3.092821419e-07
3.074497805e-07
3.079860285e-07
3.104487269e-07
3.179840462e-07
3.262504161e-07
3.430732651e-07
3.521131636e-07
3.852942651e-07
3.658085886e-07
4.428057595e-07
2.631468099e-07
6.434702066e-07
1.820072758e-06
6.606999008e-06
8.475806701e-06
2.255445386e-08
4.630379491e-08
6.473621248e-08
8.049402453e-08
9.474409289e-08
1.077344227e-07
1.201062322e-07
1.322172277e-07
1.44665148e-07
1.582981998e-07
1.742173591e-07
1.934358718e-07
2.160221181e-07
2.409006265e-07
2.698902388e-07
3.01114263e-07
3.328750808e-07
3.644025241e-07
3.936766868e-07
4.197994954e-07
4.372327128e-07
4.423320945e-07
4.3546607e-07
4.193226903e-07
3.984901072e-07
3.780556261e-07
3.621681611e-07
3.509603144e-07
3.486865554e-07
3.448913851e-07
3.536439334e-07
3.566752482e-07
3.950336676e-07
3.855246555e-07
4.632564756e-07
3.011185442e-07
9.068939603e-07
2.422835262e-06
6.654598188e-06
8.667720377e-06
2.24735888e-08
4.606139737e-08
6.446887748e-08
8.030424987e-08
9.540382008e-08
1.094035355e-07
1.242239013e-07
1.408277206e-07
1.609672509e-07
1.865783103e-07
2.191776329e-07
2.589121684e-07
3.039372872e-07
3.520172951e-07
4.041301328e-07
4.575862323e-07
5.11185411e-07
5.642565929e-07
6.141068558e-07
6.563628459e-07
6.831007373e-07
6.890937874e-07
6.739938461e-07
6.421492341e-07
6.015625721e-07
5.610841463e-07
5.271093065e-07
5.024499977e-07
4.869791297e-07
4.665646411e-07
4.492610984e-07
4.053464342e-07
3.908285514e-07