/*--------------------------------*- C++ -*----------------------------------*\
| =========                 |                                                 |
| \\      /  F ield         | OpenFOAM: The Open Source CFD Toolbox           |
|  \\    /   O peration     | Version:  v1912                                 |
|   \\  /    A nd           | Website:  www.openfoam.com                      |
|    \\/     M anipulation  |                                                 |
\*---------------------------------------------------------------------------*/
FoamFile
{
    version     2.0;
    format      ascii;
    class       volScalarField;
    location    "0.9";
    object      p_rgh;
}
// * * * * * * * * * * * * * * * * * * * * * * * * * * * * * * * * * * * * * //

dimensions      [1 -1 -2 0 0 0 0];


internalField   nonuniform List<scalar> 
4800
(
103465.434
103465.4321
103465.4274
103465.42
103465.4102
103465.398
103465.3835
103465.3669
103465.3482
103465.3277
103465.3056
103465.2819
103465.257
103465.231
103465.2041
103465.1766
103465.1487
103465.1205
103465.0924
103465.0644
103465.0368
103465.0099
103464.9836
103464.9583
103464.9341
103464.911
103464.8893
103464.8689
103464.85
103464.8326
103464.8167
103464.8024
103464.7896
103464.7783
103464.7684
103464.7594
103464.7524
103464.7412
103464.7497
103464.6283
103458.0791
103458.0772
103458.0725
103458.0651
103458.0553
103458.043
103458.0285
103458.0118
103457.993
103457.9725
103457.9502
103457.9265
103457.9015
103457.8754
103457.8484
103457.8208
103457.7928
103457.7645
103457.7363
103457.7082
103457.6806
103457.6535
103457.6272
103457.6018
103457.5775
103457.5544
103457.5326
103457.5122
103457.4932
103457.4758
103457.4599
103457.4456
103457.4328
103457.4215
103457.4117
103457.4028
103457.3958
103457.3865
103457.3888
103457.1702
103450.7256
103450.7238
103450.7191
103450.7117
103450.7018
103450.6894
103450.6748
103450.6579
103450.6391
103450.6184
103450.596
103450.5721
103450.5469
103450.5206
103450.4934
103450.4656
103450.4374
103450.4089
103450.3805
103450.3522
103450.3244
103450.2972
103450.2707
103450.2452
103450.2207
103450.1974
103450.1755
103450.155
103450.1359
103450.1184
103450.1025
103450.0882
103450.0754
103450.0642
103450.0545
103450.0459
103450.0392
103450.032
103450.026
103449.5705
103443.3737
103443.3719
103443.3672
103443.3597
103443.3497
103443.3372
103443.3224
103443.3054
103443.2863
103443.2654
103443.2427
103443.2186
103443.1931
103443.1665
103443.1391
103443.111
103443.0824
103443.0537
103443.025
103442.9964
103442.9683
103442.9408
103442.9141
103442.8883
103442.8636
103442.8401
103442.818
103442.7973
103442.7781
103442.7605
103442.7445
103442.7302
103442.7174
103442.7062
103442.6967
103442.6884
103442.6821
103442.6763
103442.6588
103441.9108
103436.0232
103436.0216
103436.0168
103436.0093
103435.9991
103435.9864
103435.9714
103435.9542
103435.9348
103435.9136
103435.8906
103435.8661
103435.8402
103435.8133
103435.7854
103435.7569
103435.728
103435.6988
103435.6697
103435.6407
103435.6122
103435.5844
103435.5573
103435.5312
103435.5062
103435.4824
103435.4601
103435.4391
103435.4198
103435.402
103435.3859
103435.3715
103435.3587
103435.3476
103435.3382
103435.3302
103435.3243
103435.3195
103435.2837
103434.2027
103428.6743
103428.6728
103428.668
103428.6603
103428.65
103428.6371
103428.6218
103428.6042
103428.5845
103428.5629
103428.5395
103428.5145
103428.4882
103428.4608
103428.4324
103428.4034
103428.374
103428.3443
103428.3146
103428.2852
103428.2562
103428.2279
103428.2003
103428.1738
103428.1484
103428.1243
103428.1017
103428.0805
103428.0609
103428.043
103428.0267
103428.0122
103427.9994
103427.9883
103427.9791
103427.9713
103427.9656
103427.9615
103427.9029
103426.4538
103421.327
103421.3255
103421.3207
103421.3128
103421.3023
103421.2892
103421.2735
103421.2556
103421.2355
103421.2134
103421.1895
103421.164
103421.1371
103421.1091
103421.0801
103421.0505
103421.0204
103420.9901
103420.9598
103420.9298
103420.9002
103420.8713
103420.8433
103420.8162
103420.7904
103420.7659
103420.7428
103420.7213
103420.7014
103420.6833
103420.6669
103420.6522
103420.6394
103420.6283
103420.6192
103420.6116
103420.606
103420.6023
103420.5137
103418.6699
103413.9813
103413.9799
103413.9749
103413.9669
103413.9562
103413.9427
103413.9267
103413.9083
103413.8877
103413.865
103413.8405
103413.8144
103413.7868
103413.7581
103413.7285
103413.6981
103413.6673
103413.6363
103413.6053
103413.5745
103413.5443
103413.5147
103413.486
103413.4584
103413.432
103413.407
103413.3835
103413.3616
103413.3414
103413.323
103413.3063
103413.2916
103413.2787
103413.2676
103413.2585
103413.251
103413.2457
103413.2422
103413.1083
103410.8579
103406.6372
103406.6359
103406.6308
103406.6226
103406.6116
103406.5977
103406.5813
103406.5624
103406.5412
103406.5179
103406.4927
103406.4658
103406.4375
103406.408
103406.3775
103406.3463
103406.3146
103406.2828
103406.2509
103406.2194
103406.1883
103406.158
103406.1286
103406.1003
103406.0733
103406.0477
103406.0237
103406.0013
103405.9807
103405.962
103405.9451
103405.9302
103405.9172
103405.9061
103405.8971
103405.8897
103405.8845
103405.8815
103405.694
103403.0207
103399.2947
103399.2935
103399.2883
103399.2799
103399.2685
103399.2543
103399.2373
103399.2178
103399.196
103399.172
103399.146
103399.1183
103399.0891
103399.0587
103399.0272
103398.9951
103398.9625
103398.9296
103398.8968
103398.8643
103398.8324
103398.8012
103398.7709
103398.7419
103398.7141
103398.6879
103398.6633
103398.6404
103398.6194
103398.6003
103398.5831
103398.568
103398.5549
103398.5438
103398.5348
103398.5276
103398.5226
103398.5198
103398.2716
103395.163
103391.9539
103391.9529
103391.9476
103391.9389
103391.9271
103391.9124
103391.8949
103391.8747
103391.8521
103391.8273
103391.8004
103391.7718
103391.7416
103391.7101
103391.6777
103391.6444
103391.6107
103391.5768
103391.543
103391.5094
103391.4764
103391.4442
103391.4131
103391.3831
103391.3546
103391.3276
103391.3024
103391.2789
103391.2574
103391.2379
103391.2204
103391.205
103391.1918
103391.1806
103391.1716
103391.1645
103391.1597
103391.1571
103390.8411
103387.2864
103384.6149
103384.6139
103384.6085
103384.5995
103384.5873
103384.5721
103384.5539
103384.533
103384.5096
103384.4839
103384.456
103384.4263
103384.3951
103384.3625
103384.3288
103384.2944
103384.2594
103384.2243
103384.1893
103384.1546
103384.1204
103384.0872
103384.055
103384.0241
103383.9946
103383.9668
103383.9408
103383.9168
103383.8947
103383.8747
103383.8569
103383.8413
103383.8278
103383.8166
103383.8076
103383.8005
103383.7959
103383.7935
103383.4023
103379.3926
103377.2777
103377.2768
103377.2712
103377.2619
103377.2493
103377.2334
103377.2146
103377.1929
103377.1685
103377.1418
103377.1128
103377.082
103377.0495
103377.0156
103376.9806
103376.9449
103376.9086
103376.8721
103376.8358
103376.7998
103376.7644
103376.7299
103376.6966
103376.6646
103376.6342
103376.6055
103376.5787
103376.5539
103376.5312
103376.5108
103376.4925
103376.4766
103376.463
103376.4516
103376.4426
103376.4356
103376.4312
103376.4288
103375.9549
103371.4828
103369.9423
103369.9416
103369.9358
103369.9261
103369.913
103369.8965
103369.8768
103369.8542
103369.8289
103369.801
103369.7709
103369.7387
103369.7049
103369.6696
103369.6332
103369.596
103369.5582
103369.5203
103369.4824
103369.445
103369.4083
103369.3725
103369.3379
103369.3047
103369.2732
103369.2436
103369.2159
103369.1903
103369.167
103369.1459
103369.1273
103369.111
103369.0972
103369.0857
103369.0767
103369.0698
103369.0655
103369.063
103368.4986
103363.5584
103362.6088
103362.6082
103362.6022
103362.5922
103362.5785
103362.5613
103362.5408
103362.5172
103362.4907
103362.4616
103362.4302
103362.3966
103362.3613
103362.3245
103362.2865
103362.2476
103362.2083
103362.1687
103362.1293
103362.0903
103362.052
103362.0148
103361.9788
103361.9444
103361.9117
103361.8809
103361.8523
103361.8259
103361.8019
103361.7802
103361.7611
103361.7445
103361.7304
103361.7188
103361.7097
103361.7029
103361.6988
103361.6958
103361.0329
103355.6206
103355.2773
103355.2768
103355.2706
103355.2601
103355.2458
103355.2278
103355.2064
103355.1817
103355.154
103355.1236
103355.0907
103355.0556
103355.0187
103354.9802
103354.9405
103354.8999
103354.8587
103354.8174
103354.7762
103354.7355
103354.6956
103354.6568
103354.6193
103354.5835
103354.5495
103354.5176
103354.488
103354.4606
103354.4358
103354.4136
103354.3939
103354.3769
103354.3625
103354.3508
103354.3417
103354.3349
103354.331
103354.327
103353.5579
103347.6699
103347.9478
103347.9474
103347.941
103347.9301
103347.9151
103347.8962
103347.8738
103347.8479
103347.8189
103347.7871
103347.7526
103347.7158
103347.6771
103347.6368
103347.5952
103347.5527
103347.5096
103347.4664
103347.4233
103347.3807
103347.339
103347.2985
103347.2594
103347.2221
103347.1867
103347.1535
103347.1227
103347.0945
103347.0688
103347.0458
103347.0257
103347.0082
103346.9936
103346.9817
103346.9726
103346.9658
103346.9621
103346.9567
103346.0735
103339.7068
103340.6203
103340.6202
103340.6135
103340.6021
103340.5863
103340.5666
103340.543
103340.5159
103340.4854
103340.452
103340.4158
103340.3772
103340.3366
103340.2943
103340.2506
103340.206
103340.1609
103340.1155
103340.0704
103340.0258
103339.9822
103339.9398
103339.899
103339.86
103339.8231
103339.7886
103339.7566
103339.7273
103339.7007
103339.677
103339.6563
103339.6384
103339.6235
103339.6114
103339.6023
103339.5956
103339.5921
103339.585
103338.58
103331.7317
103333.2951
103333.2951
103333.2881
103333.2762
103333.2596
103333.2389
103333.2141
103333.1856
103333.1536
103333.1184
103333.0804
103333.0398
103332.9971
103332.9526
103332.9068
103332.8599
103332.8125
103332.7649
103332.7175
103332.6708
103332.625
103332.5806
103332.5379
103332.4972
103332.4587
103332.4227
103332.3894
103332.359
103332.3315
103332.307
103332.2857
103332.2674
103332.2521
103332.2399
103332.2307
103332.2241
103332.2208
103332.2117
103331.0774
103323.745
103325.972
103325.9722
103325.965
103325.9524
103325.9351
103325.9132
103325.8872
103325.8571
103325.8234
103325.7864
103325.7463
103325.7036
103325.6587
103325.6119
103325.5636
103325.5143
103325.4645
103325.4144
103325.3646
103325.3155
103325.2675
103325.2209
103325.1762
103325.1336
103325.0934
103325.0558
103325.0212
103324.9895
103324.961
103324.9358
103324.9138
103324.895
103324.8795
103324.8671
103324.8578
103324.8513
103324.8483
103324.837
103323.5656
103315.7472
103318.6513
103318.6518
103318.6442
103318.631
103318.6127
103318.5897
103318.5622
103318.5305
103318.495
103318.456
103318.4137
103318.3687
103318.3214
103318.272
103318.2212
103318.1692
103318.1167
103318.064
103318.0116
103317.96
103317.9095
103317.8606
103317.8137
103317.769
103317.727
103317.6878
103317.6516
103317.6188
103317.5892
103317.5631
103317.5404
103317.5212
103317.5054
103317.4928
103317.4835
103317.4771
103317.4742
103317.4602
103316.0454
103307.739
103311.333
103311.3337
103311.3258
103311.3119
103311.2926
103311.2683
103311.2393
103311.2059
103311.1684
103311.1272
103311.0826
103311.0351
103310.9851
103310.933
103310.8794
103310.8246
103310.7692
103310.7137
103310.6585
103310.6041
103310.551
103310.4996
103310.4503
103310.4035
103310.3594
103310.3185
103310.2808
103310.2466
103310.2159
103310.1889
103310.1656
103310.1459
103310.1298
103310.1171
103310.1078
103310.1014
103310.0987
103310.0812
103308.5168
103299.7207
103304.0171
103304.0181
103304.0099
103303.9952
103303.9749
103303.9492
103303.9185
103303.8832
103303.8436
103303.8
103303.7529
103303.7027
103303.6499
103303.5949
103303.5382
103303.4804
103303.4219
103303.3633
103303.3051
103303.2478
103303.1918
103303.1377
103303.0859
103303.0367
103302.9906
103302.9477
103302.9084
103302.8728
103302.841
103302.8131
103302.7891
103302.769
103302.7526
103302.7398
103302.7305
103302.7243
103302.7217
103302.7004
103300.979
103291.6922
103296.7039
103296.7052
103296.6966
103296.6811
103296.6596
103296.6324
103296.6
103296.5626
103296.5206
103296.4745
103296.4247
103296.3716
103296.3157
103296.2576
103296.1977
103296.1365
103296.0748
103296.0129
103295.9514
103295.8909
103295.8319
103295.7749
103295.7204
103295.6687
103295.6203
103295.5754
103295.5344
103295.4973
103295.4643
103295.4355
103295.4108
103295.3902
103295.3736
103295.3608
103295.3516
103295.3456
103295.3433
103295.3177
103293.4323
103283.6538
103289.3933
103289.395
103289.3859
103289.3696
103289.3468
103289.318
103289.2837
103289.2441
103289.1996
103289.1508
103289.098
103289.0418
103288.9826
103288.9211
103288.8577
103288.793
103288.7276
103288.6622
103288.5972
103288.5333
103288.471
103288.4109
103288.3535
103288.2992
103288.2483
103288.2014
103288.1585
103288.1199
103288.0857
103288.0559
103288.0306
103288.0096
103287.9928
103287.9799
103287.9709
103287.9653
103287.9635
103287.9331
103285.8768
103275.6058
103282.0855
103282.0876
103282.0781
103282.0608
103282.0366
103282.0061
103281.9697
103281.9277
103281.8806
103281.8288
103281.7728
103281.7133
103281.6506
103281.5853
103281.5182
103281.4497
103281.3805
103281.3112
103281.2425
103281.1749
103281.1091
103281.0457
103280.9851
103280.9279
103280.8746
103280.8253
103280.7805
103280.7403
103280.7049
103280.6742
103280.6482
103280.6268
103280.6099
103280.5972
103280.5884
103280.5831
103280.5821
103280.5468
103278.3122
103267.5488
103274.7806
103274.7831
103274.7731
103274.7548
103274.7292
103274.6968
103274.6581
103274.6135
103274.5635
103274.5085
103274.4492
103274.3859
103274.3194
103274.2503
103274.1791
103274.1065
103274.0331
103273.9597
103273.887
103273.8155
103273.7459
103273.6789
103273.615
103273.5548
103273.4987
103273.4471
103273.4002
103273.3584
103273.3216
103273.29
103273.2634
103273.2418
103273.2248
103273.2122
103273.2038
103273.199
103273.1983
103273.1574
103270.7404
103259.4839
103267.4787
103267.4817
103267.4711
103267.4517
103267.4245
103267.3901
103267.3489
103267.3015
103267.2484
103267.19
103267.127
103267.0599
103266.9893
103266.9159
103266.8403
103266.7633
103266.6855
103266.6077
103266.5306
103266.4549
103266.3812
103266.3104
103266.243
103266.1795
103266.1205
103266.0663
103266.0174
103265.9738
103265.9357
103265.9032
103265.8761
103265.8542
103265.8373
103265.825
103265.817
103265.8127
103265.8122
103265.7647
103263.1616
103251.412
103260.1799
103260.1834
103260.1723
103260.1516
103260.1227
103260.0861
103260.0423
103259.9919
103259.9354
103259.8733
103259.8063
103259.7349
103259.6599
103259.582
103259.5018
103259.42
103259.3375
103259.2549
103259.1731
103259.0928
103259.0149
103258.9399
103258.8686
103258.8017
103258.7396
103258.6828
103258.6316
103258.5863
103258.5469
103258.5134
103258.4859
103258.4639
103258.4472
103258.4353
103258.4279
103258.4243
103258.4244
103258.3703
103255.5735
103243.3324
103252.8843
103252.8884
103252.8767
103252.8547
103252.8239
103252.7849
103252.7382
103252.6845
103252.6244
103252.5583
103252.487
103252.4111
103252.3314
103252.2485
103252.1633
103252.0764
103251.9888
103251.9011
103251.8143
103251.7291
103251.6465
103251.5671
103251.4918
103251.4211
103251.3557
103251.2961
103251.2426
103251.1954
103251.1547
103251.1204
103251.0924
103251.0705
103251.0541
103251.0429
103251.0362
103251.0336
103251.0345
103250.9732
103247.9768
103235.2453
103245.5922
103245.5969
103245.5844
103245.5611
103245.5282
103245.4866
103245.4368
103245.3796
103245.3154
103245.245
103245.1691
103245.0884
103245.0035
103244.9154
103244.8247
103244.7324
103244.6392
103244.5461
103244.4539
103244.3635
103244.2758
103244.1917
103244.1119
103244.0373
103243.9685
103243.9059
103243.8499
103243.8008
103243.7587
103243.7237
103243.6954
103243.6736
103243.6579
103243.6475
103243.6418
103243.6404
103243.6423
103243.5735
103240.3715
103227.1506
103238.3036
103238.309
103238.2958
103238.2708
103238.2357
103238.1912
103238.1381
103238.077
103238.0085
103237.9335
103237.8525
103237.7665
103237.6762
103237.5824
103237.4859
103237.3877
103237.2886
103237.1896
103237.0915
103236.9955
103236.9024
103236.8132
103236.7288
103236.6499
103236.5773
103236.5116
103236.4531
103236.402
103236.3586
103236.3228
103236.2944
103236.273
103236.2581
103236.2487
103236.2443
103236.2445
103236.2478
103236.1712
103232.7576
103219.0481
103231.0187
103231.0248
103231.0108
103230.9841
103230.9465
103230.8989
103230.8421
103230.7768
103230.7036
103230.6235
103230.5372
103230.4455
103230.3492
103230.2493
103230.1466
103230.0421
103229.9366
103229.8312
103229.727
103229.6248
103229.5259
103229.4312
103229.3418
103229.2584
103229.1819
103229.1128
103229.0516
103228.9985
103228.9537
103228.9173
103228.8889
103228.8681
103228.8542
103228.8462
103228.8436
103228.8457
103228.8511
103228.7668
103225.1351
103210.9378
103223.7378
103223.7447
103223.7297
103223.7011
103223.6608
103223.6098
103223.5489
103223.479
103223.4008
103223.3151
103223.223
103223.1251
103223.0225
103222.916
103222.8066
103222.6952
103222.5829
103222.4707
103222.3597
103222.2511
103222.1459
103222.0453
103221.9504
103221.8622
103221.7815
103221.7089
103221.6448
103221.5896
103221.5435
103221.5064
103221.4783
103221.4584
103221.4458
103221.4396
103221.4391
103221.4436
103221.4515
103221.3602
103217.5046
103202.8204
103216.4611
103216.4688
103216.4527
103216.422
103216.3787
103216.3239
103216.2586
103216.1836
103216.0999
103216.0082
103215.9097
103215.8052
103215.6957
103215.5821
103215.4655
103215.3468
103215.2271
103215.1076
103214.9894
103214.8736
103214.7617
103214.6548
103214.5541
103214.4607
103214.3755
103214.2992
103214.2321
103214.1747
103214.1272
103214.0896
103214.0618
103214.0432
103214.0322
103214.0283
103214.0304
103214.0376
103214.0479
103213.9475
103209.8703
103194.697
103209.1888
103209.1974
103209.1801
103209.1469
103209.1003
103209.0415
103208.9712
103208.8907
103208.8008
103208.7027
103208.5973
103208.4855
103208.3686
103208.2474
103208.1229
103207.9964
103207.8688
103207.7414
103207.6154
103207.492
103207.3728
103207.259
103207.1521
103207.0532
103206.9633
103206.883
103206.8128
103206.753
103206.7041
103206.666
103206.6388
103206.6216
103206.6127
103206.6118
103206.6171
103206.6276
103206.6407
103206.531
103202.2302
103186.5673
103201.9213
103201.9308
103201.9121
103201.8763
103201.826
103201.7625
103201.6868
103201.6002
103201.5036
103201.3983
103201.2854
103201.1659
103201.0408
103200.9113
103200.7786
103200.6436
103200.5075
103200.3715
103200.237
103200.1054
103199.9783
103199.8572
103199.7437
103199.6389
103199.544
103199.4595
103199.3859
103199.3237
103199.2731
103199.2346
103199.2082
103199.1926
103199.1865
103199.1892
103199.1987
103199.2134
103199.2301
103199.112
103194.5823
103178.4309
103194.6591
103194.6695
103194.649
103194.6102
103194.5558
103194.4871
103194.4055
103194.312
103194.2081
103194.095
103193.9738
103193.8458
103193.712
103193.5736
103193.4318
103193.2877
103193.1424
103192.9973
103192.8537
103192.7132
103192.5775
103192.4485
103192.3278
103192.2169
103192.1168
103192.0279
103191.9507
103191.8856
103191.8332
103191.7942
103191.7687
103191.7551
103191.7525
103191.7598
103191.7744
103191.7943
103191.8156
103191.6897
103186.9272
103170.2879
103187.4027
103187.4139
103187.3914
103187.3491
103187.2901
103187.2157
103187.1273
103187.0263
103186.9142
103186.7925
103186.6623
103186.525
103186.3817
103186.2337
103186.0821
103185.9281
103185.773
103185.6179
103185.4644
103185.3142
103185.1693
103185.0318
103184.9036
103184.7863
103184.6807
103184.5873
103184.5062
103184.4379
103184.3832
103184.3433
103184.3188
103184.3076
103184.3093
103184.3223
103184.3434
103184.3699
103184.3968
103184.2638
103179.265
103162.1383
103180.1528
103180.1647
103180.1398
103180.0935
103180.0292
103179.9483
103179.8523
103179.7428
103179.6217
103179.4904
103179.3503
103179.2028
103179.0492
103178.8908
103178.7287
103178.5642
103178.3984
103178.2325
103178.0682
103177.9074
103177.7524
103177.6058
103177.4697
103177.3458
103177.2349
103177.1367
103177.0514
103176.9793
103176.9217
103176.8804
103176.8566
103176.8482
103176.8552
103176.8754
103176.9047
103176.9394
103176.9734
103176.8349
103171.5963
103153.982
103172.9103
103172.9226
103172.8946
103172.8438
103172.7734
103172.6851
103172.5805
103172.4616
103172.3304
103172.1885
103172.0375
103171.8789
103171.7141
103171.5444
103171.3711
103171.1953
103171.0181
103170.8407
103170.6645
103170.4919
103170.3259
103170.1694
103170.0251
103169.8948
103169.7786
103169.6756
103169.5856
103169.5086
103169.4469
103169.4033
103169.3797
103169.3745
103169.388
103169.4173
103169.4569
103169.5022
103169.5451
103169.4019
103163.9215
103145.8191
103165.6761
103165.6884
103165.6568
103165.6006
103165.5234
103165.4266
103165.3123
103165.1827
103165.0401
103164.8866
103164.7238
103164.5531
103164.3761
103164.1941
103164.0085
103163.8203
103163.6305
103163.4401
103163.2506
103163.0649
103162.8866
103162.7197
103162.5673
103162.4312
103162.3105
103162.2032
103162.1078
103162.0246
103161.9568
103161.9092
103161.8849
103161.8832
103161.9047
103161.9455
103161.9985
103162.0573
103162.1115
103161.9665
103156.2409
103137.6498
103158.4515
103158.4634
103158.4272
103158.3647
103158.2797
103158.1733
103158.048
103157.9065
103157.7515
103157.5849
103157.4087
103157.2248
103157.0345
103156.8394
103156.6406
103156.4391
103156.2351
103156.0297
103155.8248
103155.624
103155.4319
103155.2539
103155.0938
103154.9531
103154.8293
103154.7181
103154.6166
103154.5251
103154.4486
103154.3943
103154.3677
103154.3699
103154.4012
103154.4569
103154.5276
103154.604
103154.6729
103154.5294
103148.5562
103129.4744
103151.2382
103151.249
103151.2073
103151.1377
103151.0437
103150.9264
103150.7885
103150.6335
103150.4645
103150.2837
103150.093
103149.894
103149.6886
103149.4787
103149.2654
103149.0491
103148.8296
103148.6073
103148.3845
103148.1658
103147.958
103147.7685
103147.6023
103147.4599
103147.3355
103147.2211
103147.1117
103147.0087
103146.9189
103146.853
103146.8214
103146.8276
103146.8716
103146.9471
103147.0415
103147.1411
103147.2292
103147.0886
103140.8686
103121.2945
103144.039
103144.0478
103143.9991
103143.9212
103143.817
103143.6872
103143.5351
103143.3647
103143.1794
103142.9821
103142.7748
103142.5595
103142.3387
103142.1146
103141.888
103141.658
103141.4233
103141.1829
103140.9392
103140.6992
103140.4729
103140.2712
103140.1008
103139.9603
103139.8385
103139.7216
103139.6008
103139.4788
103139.3665
103139.2806
103139.2379
103139.2471
103139.3072
103139.4099
103139.5371
103139.6683
103139.7813
103139.6482
103133.181
103113.1122
103136.8588
103136.8624
103136.8054
103136.7182
103136.6022
103136.4573
103136.2882
103136.0999
103135.8967
103135.6819
103135.4583
103135.2288
103134.9963
103134.7625
103134.5269
103134.2865
103134.0374
103133.7771
103133.5088
103133.2424
103132.9929
103132.7762
103132.6024
103132.4666
103132.3496
103132.2297
103132.0927
103131.9431
103131.7959
103131.676
103131.6105
103131.6178
103131.6974
103131.8368
103132.0103
103132.1849
103132.3304
103132.209
103125.4912
103104.9296
103129.7034
103129.6979
103129.6318
103129.533
103129.4016
103129.2385
103129.0506
103128.8446
103128.6256
103128.3968
103128.1607
103127.9208
103127.6802
103127.4406
103127.1996
103126.9519
103126.69
103126.4085
103126.1115
103125.8127
103125.5334
103125.2974
103125.1205
103124.9927
103124.8836
103124.7593
103124.6008
103124.4121
103124.2143
103124.0424
103123.9374
103123.9317
103124.0316
103124.2192
103124.4574
103124.6919
103124.8784
103124.7706
103117.8034
103096.7507
103122.5831
103122.5633
103122.4841
103122.3697
103122.2208
103122.0402
103121.8361
103121.6158
103121.3839
103121.1433
103120.8965
103120.6476
103120.4016
103120.1605
103119.9197
103119.6696
103119.3981
103119.0962
103118.769
103118.4341
103118.1204
103117.8627
103117.6836
103117.5653
103117.4638
103117.3321
103117.1453
103116.9056
103116.6405
103116.3954
103116.2242
103116.1853
103116.3016
103116.5509
103116.8786
103117.1941
103117.4319
103117.3404
103110.1148
103088.5804
103115.5134
103115.4664
103115.3702
103115.2406
103115.0761
103114.8794
103114.6602
103114.4254
103114.1793
103113.9247
103113.6646
103113.4054
103113.1556
103112.9185
103112.6855
103112.4371
103112.1555
103111.8308
103111.4743
103111.1115
103110.777
103110.5082
103110.3288
103110.2153
103110.1134
103109.9654
103109.7372
103109.4231
103109.0564
103108.7025
103108.4379
103108.3559
103108.4962
103108.8363
103109.2852
103109.7016
103109.9988
103109.923
103102.4228
103080.4261
103108.5088
103108.4205
103108.3046
103108.1546
103107.9661
103107.7466
103107.5054
103107.2456
103106.9713
103106.6924
103106.4194
103106.1596
103105.9182
103105.6873
103105.4532
103105.19
103104.8854
103104.5441
103104.188
103103.8495
103103.5361
103103.2739
103103.089
103102.9584
103102.8237
103102.6103
103102.2707
103101.8114
103101.3145
103100.8708
103100.5393
103100.4031
103100.5904
103101.088
103101.7096
103102.2391
103102.5916
103102.5218
103094.7216
103072.3075
103101.4914
103101.3766
103101.2027
103100.9854
103100.7439
103100.493
103100.2195
103099.9195
103099.6073
103099.306
103099.0344
103098.7983
103098.5791
103098.3584
103098.0932
103097.7901
103097.4755
103097.1605
103096.8877
103096.6364
103096.3712
103096.1231
103095.9164
103095.7189
103095.4557
103095.0893
103094.6197
103094.0855
103093.5634
103093.1064
103092.7485
103092.5547
103092.6878
103093.3732
103094.2026
103094.8464
103095.2307
103095.1464
103086.9927
103064.2601
103093.9882
103093.8708
103093.5265
103093.1776
103092.9272
103092.7148
103092.4488
103092.1417
103091.8473
103091.5932
103091.3854
103091.195
103090.984
103090.7388
103090.4194
103090.1171
103089.8441
103089.6551
103089.5427
103089.3836
103089.1479
103088.8879
103088.613
103088.2536
103087.8726
103087.4642
103087.0353
103086.5692
103086.0827
103085.6266
103085.2386
103085.0143
103085.1052
103085.815
103086.8387
103087.5645
103087.9427
103087.808
103079.1865
103056.3411
103084.7283
103084.6992
103084.211
103083.8938
103083.9451
103083.9903
103083.9027
103083.743
103083.5825
103083.4497
103083.3216
103083.155
103082.9375
103082.6398
103082.3412
103082.0928
103081.9402
103081.9631
103081.9856
103081.8732
103081.6404
103081.3612
103080.9664
103080.5759
103080.2545
103079.9451
103079.6436
103079.2989
103078.8372
103078.3251
103077.8768
103077.6566
103077.856
103078.6472
103079.6782
103080.4021
103080.7311
103080.4977
103071.0875
103048.7402
103072.3753
103072.6218
103072.3849
103072.6428
103073.4984
103074.1237
103074.4645
103074.6307
103074.7075
103074.7183
103074.647
103074.4867
103074.2647
103073.9958
103073.7728
103073.6219
103073.6659
103073.8455
103073.9339
103073.8507
103073.6309
103073.3458
103072.967
103072.6869
103072.458
103072.3151
103072.1604
103071.8862
103071.4603
103070.9216
103070.4402
103070.2207
103070.5331
103071.5168
103072.7085
103073.3749
103073.5774
103073.1802
103062.5365
103041.6484
103056.2265
103057.0686
103057.688
103059.1948
103061.2549
103062.8151
103063.8659
103064.5329
103064.9257
103065.1043
103065.1126
103065.0062
103064.8438
103064.6764
103064.5656
103064.5587
103064.7421
103064.9811
103065.09
103065.0319
103064.8311
103064.5181
103064.1055
103063.8077
103063.5448
103063.3712
103063.2582
103063.0692
103062.6947
103062.1085
103061.5114
103061.3077
103061.9359
103063.4246
103065.229
103066.2616
103066.4532
103065.5157
103053.5602
103035.2015
103036.0318
103037.7892
103039.7479
103042.7471
103046.2179
103049.0414
103051.1084
103052.5025
103053.3788
103053.8818
103054.1348
103054.2385
103054.2674
103054.2724
103054.2938
103054.3971
103054.6318
103054.8687
103054.9561
103054.8493
103054.5791
103053.8147
103052.8728
103051.958
103051.0897
103050.362
103049.7422
103049.0422
103047.9609
103046.3224
103044.4895
103043.2076
103044.9536
103049.2413
103053.9264
103057.2442
103058.5826
103056.59
103044.4079
103029.4621
103011.3616
103014.0706
103017.241
103021.2085
103025.7212
103029.7955
103033.0757
103035.5056
103037.2457
103038.5086
103039.4564
103040.1671
103040.6645
103040.9735
103041.157
103041.3136
103041.5202
103041.7135
103041.7553
103041.5941
103040.8596
103038.9972
103036.7743
103034.1778
103031.316
103028.3114
103025.0491
103021.1174
103015.8838
103008.9175
103001.0623
102995.0303
102993.1165
103010.3895
103028.8363
103041.2165
103045.5049
103046.4102
103035.5373
103024.2244
102980.9412
102984.0044
102987.2
102990.1225
102993.5958
102997.3029
103000.8247
103003.9487
103006.6666
103009.0938
103011.3083
103013.2606
103014.8106
103015.8549
103016.4221
103016.6746
103016.8015
103016.9197
103017.0274
103016.962
103016.0106
103013.4216
103009.8708
103005.1917
102999.4727
102992.6077
102984.1655
102973.091
102957.7162
102936.5713
102911.2004
102889.1314
102879.1353
102903.3193
102960.7349
103008.8844
103030.288
103035.3216
103027.5191
103018.6534
102941.1121
102942.8341
102943.3475
102941.0158
102938.1149
102935.9475
102934.7444
102934.4901
102934.8597
102935.6254
102936.6828
102938.0062
102939.5075
102940.9443
102942.0058
102942.5872
102942.7802
102942.7195
102942.8037
102943.3648
102944.2296
102944.5582
102942.7866
102939.6834
102935.4715
102929.8185
102922.119
102910.13
102890.5231
102859.84
102819.3344
102779.6104
102754.8058
102750.2774
102816.131
102918.7899
102997.2765
103022.4594
103019.5344
103010.5408
102880.4966
102876.6896
102869.838
102859.013
102846.7198
102834.4724
102822.9586
102812.6679
102803.8725
102796.2944
102789.7798
102784.4922
102780.5848
102777.9557
102776.2692
102775.0752
102773.8537
102772.3254
102770.8653
102770.0302
102769.8533
102771.3225
102774.0895
102777.9305
102783.6356
102791.0857
102800.0054
102807.2032
102809.5842
102794.5875
102768.9287
102734.9359
102697.4842
102676.9691
102676.7995
102755.9723
102892.642
102990.5387
103008.9714
102994.5589
102755.4282
102743.1173
102731.3828
102724.8631
102721.4546
102717.7723
102712.7239
102706.2786
102698.7969
102690.7285
102682.8405
102675.7777
102669.9742
102665.5225
102662.2512
102659.9885
102658.4687
102657.1528
102655.2747
102652.3656
102648.7291
102644.8757
102641.3022
102638.9269
102638.2151
102643.1574
102652.9373
102667.286
102684.5396
102698.1681
102702.7431
102693.2755
102676.0578
102659.2383
102636.4987
102636.1773
102712.94
102867.2584
102966.6821
102957.6455
102614.6956
102615.9208
102617.0853
102619.0819
102622.2347
102626.529
102630.902