/*--------------------------------*- C++ -*----------------------------------*\
| =========                 |                                                 |
| \\      /  F ield         | OpenFOAM: The Open Source CFD Toolbox           |
|  \\    /   O peration     | Version:  v1912                                 |
|   \\  /    A nd           | Website:  www.openfoam.com                      |
|    \\/     M anipulation  |                                                 |
\*---------------------------------------------------------------------------*/
FoamFile
{
    version     2.0;
    format      ascii;
    class       surfaceScalarField;
    location    "0.9";
    object      phi;
}
// * * * * * * * * * * * * * * * * * * * * * * * * * * * * * * * * * * * * * //

dimensions      [0 3 -1 0 0 0 0];
oriented        oriented;


internalField   nonuniform List<scalar> 
9440
(
3.172454338e-10
-3.172454338e-10
1.287498937e-09
-9.702535101e-10
2.903991594e-09
-1.61649267e-09
5.153169103e-09
-2.249177528e-09
8.017190076e-09
-2.864020994e-09
1.147338101e-08
-3.456190954e-09
1.549450214e-08
-4.021121143e-09
2.004887649e-08
-4.554374369e-09
2.510075386e-08
-5.051877366e-09
3.061066395e-08
-5.50991008e-09
3.653579842e-08
-5.925134448e-09
4.283046225e-08
-6.294663785e-09
4.944658161e-08
-6.616119303e-09
5.633426724e-08
-6.887685546e-09
6.344243295e-08
-7.108165599e-09
7.07194685e-08
-7.277035422e-09
7.811396525e-08
-7.394496594e-09
8.557549256e-08
-7.461527124e-09
9.305542279e-08
-7.479930014e-09
1.00507803e-07
-7.452379942e-09
1.078902723e-07
-7.382469034e-09
1.151650265e-07
-7.274753895e-09
1.222998342e-07
-7.134807383e-09
1.292691156e-07
-6.969281047e-09
1.360551135e-07
-6.785997542e-09
1.426492414e-07
-6.594127423e-09
1.490535525e-07
-6.404310722e-09
1.55282565e-07
-6.229011995e-09
1.613656069e-07
-6.083041486e-09
1.673499184e-07
-5.984310999e-09
1.733046832e-07
-5.954764214e-09
1.793233093e-07
-6.01862555e-09
1.855565544e-07
-6.233244615e-09
1.921537672e-07
-6.597212197e-09
1.997412841e-07
-7.587516317e-09
2.074239761e-07
-7.682691335e-09
2.220692972e-07
-1.464532048e-08
2.167220275e-07
5.347270304e-09
3.637564611e-07
-1.470475137e-07
3.737886144e-07
3.401112625e-10
-6.573567027e-10
1.36226689e-09
-1.992409156e-09
3.062099323e-09
-3.316325129e-09
5.426944222e-09
-4.614022456e-09
8.438847629e-09
-5.875924432e-09
1.207496494e-08
-7.09230829e-09
1.630773884e-08
-8.25389506e-09
2.11051388e-08
-9.351774333e-09
2.643108206e-08
-1.03778206e-08
3.224568577e-08
-1.132451374e-08
3.85056778e-08
-1.218512641e-08
4.516485209e-08
-1.295383795e-08
5.217457798e-08
-1.362584505e-08
5.948436563e-08
-1.419747301e-08
6.704248746e-08
-1.466628719e-08
7.479665525e-08
-1.503120293e-08
8.269475154e-08
-1.529259256e-08
9.068561344e-08
-1.545238865e-08
9.871986689e-08
-1.551418303e-08
1.067508093e-07
-1.548332184e-08
1.147353394e-07
-1.536699865e-08
1.226349358e-07
-1.517434971e-08
1.304166873e-07
-1.491655821e-08
1.380543871e-07
-1.460698024e-08
1.45529714e-07
-1.426132364e-08
1.528334945e-07
-1.38979072e-08
1.599672577e-07
-1.353807306e-08
1.669449417e-07
-1.320669516e-08
1.737950729e-07
-1.293317181e-08
1.805636291e-07
-1.275286626e-08
1.873178453e-07
-1.270897951e-08
1.941490278e-07
-1.284980709e-08
2.011875868e-07
-1.327180256e-08
2.085944856e-07
-1.400410991e-08
2.167390106e-07
-1.573204027e-08
2.253207902e-07
-1.626446987e-08
2.398195545e-07
-2.914408365e-08
2.40982914e-07
4.183911994e-09
2.997221718e-07
-2.058076743e-07
6.852371207e-07
3.428436466e-10
-1.000200354e-09
1.370921179e-09
-3.020486702e-09
3.07880344e-09
-5.024207411e-09
5.454351922e-09
-6.989570964e-09
8.479791593e-09
-8.901364129e-09
1.213228973e-08
-1.074480644e-08
1.63842555e-08
-1.250586085e-08
2.120368382e-08
-1.417120265e-08
2.655433533e-08
-1.572847209e-08
3.239616169e-08
-1.716634006e-08
3.86856981e-08
-1.847466275e-08
4.537651544e-08
-1.964465519e-08
5.241972856e-08
-2.066905803e-08
5.97645614e-08
-2.154230568e-08
6.735896864e-08
-2.226069423e-08
7.5150313e-08
-2.282254706e-08
8.308609696e-08
-2.322837624e-08
9.111474669e-08
-2.348103806e-08
9.918644589e-08
-2.358588186e-08
1.072540169e-07
-2.355089245e-08
1.152738474e-07
-2.338682866e-08
1.232068614e-07
-2.310736328e-08
1.310195376e-07
-2.272923384e-08
1.386849789e-07
-2.227242103e-08
1.46184045e-07
-2.176038906e-08
1.535065465e-07
-2.122040803e-08
1.606526534e-07
-2.068417931e-08
1.676343979e-07
-2.018843896e-08
1.744774191e-07
-1.977619219e-08
1.812233741e-07
-1.949882045e-08
1.879332018e-07
-1.941880643e-08
1.946905164e-07
-1.960712086e-08
2.015984295e-07
-2.017971479e-08
2.087920039e-07
-2.119768344e-08
2.165158832e-07
-2.345591866e-08
2.245979385e-07
-2.434652415e-08
2.35522782e-07
-4.006892623e-08
2.39019787e-07
6.869078844e-10
2.595565613e-07
-2.263839392e-07
9.580881126e-07
3.456391571e-10
-1.345839516e-09
1.381455376e-09
-4.056302934e-09
3.101179229e-09
-6.743931282e-09
5.492613679e-09
-9.381005435e-09
8.537976299e-09
-1.194672677e-08
1.221432085e-08
-1.442115102e-08
1.649386986e-08
-1.678540986e-08
2.134431323e-08
-1.902164602e-08
2.672908406e-08
-2.111324288e-08
3.260772733e-08
-2.304498329e-08
3.893630754e-08
-2.48032429e-08
4.566786153e-08
-2.637620908e-08
5.275290762e-08
-2.775410399e-08
6.014001153e-08
-2.892940944e-08
6.777640935e-08
-2.989709185e-08
7.560868674e-08
-3.06548242e-08
8.358351283e-08
-3.120320206e-08
9.164842654e-08
-3.154595147e-08
9.975267225e-08
-3.169012721e-08
1.078480815e-07
-3.164630134e-08
1.158899978e-07
-3.142874444e-08
1.238382404e-07
-3.105560547e-08
1.316581079e-07
-3.054910079e-08
1.39321417e-07
-2.993572955e-08
1.468075786e-07
-2.924655007e-08
1.541047466e-07
-2.851757541e-08
1.612109535e-07
-2.779038554e-08
1.6813548e-07
-2.711296477e-08
1.749000936e-07
-2.654080509e-08
1.815406002e-07
-2.613932631e-08
1.881089859e-07
-2.59871913e-08
1.94678141e-07
-2.617627513e-08
2.013309972e-07
-2.683257018e-08
2.08159479e-07
-2.802616434e-08
2.15277015e-07
-3.057345383e-08
2.225869723e-07
-3.165648049e-08
2.302825552e-07
-4.776450812e-08
2.3562932e-07
-4.659856108e-09
2.418303401e-07
-2.326392704e-07
1.214477761e-06
3.490029022e-10
-1.694842423e-09
1.394655475e-09
-5.101955518e-09
3.130158293e-09
-8.479434117e-09
5.543072049e-09
-1.179391921e-08
8.615463941e-09
-1.501911868e-08
1.232417226e-08
-1.812985935e-08
1.664112433e-08
-2.110236193e-08
2.153361456e-08
-2.391413624e-08
2.696460853e-08
-2.654423682e-08
3.289309864e-08
-2.897347334e-08
3.92745104e-08
-3.118465459e-08
4.6061157e-08
-3.316285558e-08
5.320274873e-08
-3.489569559e-08
6.06469599e-08
-3.637362044e-08
6.834005341e-08
-3.759018516e-08
7.622756244e-08
-3.8542333e-08
8.425502752e-08
-3.923066686e-08
9.236878609e-08
-3.965970972e-08
1.005168111e-07
-3.983815188e-08
1.086495941e-07
-3.977908394e-08
1.167210676e-07
-3.950021755e-08
1.246895621e-07
-3.902409943e-08
1.325187911e-07
-3.837832932e-08
1.401788607e-07
-3.759579854e-08
1.476472866e-07
-3.671497541e-08
1.549100274e-07
-3.578031565e-08
1.619624943e-07
-3.484285175e-08
1.688106443e-07
-3.396111407e-08
1.754718915e-07
-3.320205158e-08
1.819757701e-07
-3.264320416e-08
1.883647236e-07
-3.237614407e-08
1.946953519e-07
-3.250690255e-08
2.010399769e-07
-3.317719434e-08
2.074606914e-07
-3.444687804e-08
2.139588517e-07
-3.707161322e-08
2.206131595e-07
-3.831078744e-08
2.263217038e-07
-5.347305135e-08
2.325353529e-07
-1.08735044e-08
2.299990419e-07
-2.301661334e-07
1.459844224e-06
3.530444306e-10
-2.047886858e-09
1.410747088e-09
-6.159658185e-09
3.165954139e-09
-1.023464118e-08
5.605926419e-09
-1.42338915e-08
8.712470911e-09
-1.812566319e-08
1.24621102e-08
-2.187949865e-08
1.682637058e-08
-2.54666223e-08
2.177204472e-08
-2.885981037e-08
2.726149909e-08
-3.203369115e-08
3.32530253e-08
-3.49649995e-08
3.970124272e-08
-3.763287192e-08
4.65575525e-08
-4.001916525e-08
5.377064726e-08
-4.210879021e-08
6.128707873e-08
-4.389005174e-08
6.905188447e-08
-4.53549907e-08
7.700927274e-08
-4.649972103e-08
8.510336363e-08
-4.732475747e-08
9.327898332e-08
-4.78353291e-08
1.014825069e-07
-4.804167509e-08
1.096627439e-07
-4.795932055e-08
1.177718601e-07
-4.760933337e-08
1.257663273e-07
-4.701856615e-08
1.336078919e-07
-4.621989338e-08
1.41264553e-07
-4.525245916e-08
1.487115281e-07
-4.416194989e-08
1.559321814e-07
-4.300096837e-08
1.6291891e-07
-4.182957967e-08
1.69673943e-07
-4.07161464e-08
1.762101212e-07
-3.973822906e-08
1.825508783e-07
-3.898396052e-08
1.887300223e-07
-3.855528732e-08
1.947906397e-07
-3.856751916e-08
2.007894967e-07
-3.917605056e-08
2.067831631e-07
-4.044054354e-08
2.127133344e-07
-4.300178361e-08
2.188897405e-07
-4.448719275e-08
2.235474469e-07
-5.813075672e-08
2.319235602e-07
-1.92496168e-08
2.203907725e-07
-2.186941106e-07
1.696142187e-06
3.578322637e-10
-2.405719124e-09
1.429903115e-09
-7.231729044e-09
3.208797691e-09
-1.201353577e-08
5.681458318e-09
-1.670655214e-08
8.829353305e-09
-2.127355818e-08
1.262859768e-08
-2.567874302e-08
1.705021448e-08
-2.98882391e-08
2.20603837e-08
-3.386997956e-08
2.76207432e-08
-3.759405061e-08
3.368873549e-08
-4.103299172e-08
4.021800602e-08
-4.416214236e-08
4.715885521e-08
-4.696001433e-08
5.445874753e-08
-4.940868238e-08
6.206288011e-08
-5.149418415e-08
6.991481176e-08
-5.320692214e-08
7.795715186e-08
-5.454206089e-08
8.613230694e-08
-5.549991226e-08
9.438328107e-08
-5.608630292e-08
1.026545249e-07
-5.631291858e-08
1.108928262e-07
-5.619762149e-08
1.190482333e-07
-5.576473999e-08
1.270750004e-07
-5.504533283e-08
1.349325437e-07
-5.407743617e-08
1.425863926e-07
-5.29063075e-08
1.50009115e-07
-5.158467174e-08
1.571811639e-07
-5.017301664e-08
1.640916494e-07
-4.874006454e-08
1.707389011e-07
-4.736339744e-08
1.771311043e-07
-4.613043154e-08
1.832859892e-07
-4.513884472e-08
1.892300403e-07
-4.449933763e-08
1.949976611e-07
-4.433513925e-08
2.006302674e-07
-4.480865604e-08
2.061845898e-07
-4.599486507e-08
2.115827174e-07
-4.839991033e-08
2.172930801e-07
-5.019755458e-08
2.213317418e-07
-6.216941741e-08
2.343022125e-07
-3.222008667e-08
2.122376796e-07
-1.966794884e-07
1.924666874e-06
3.634085973e-10
-2.769127724e-09
1.452251729e-09
-8.320572182e-09
3.258899736e-09
-1.382018378e-08
5.769964959e-09
-1.921761737e-08
8.966517672e-09
-2.447011089e-08
1.282418323e-08
-2.953640857e-08
1.731338356e-08
-3.437743941e-08
2.239957529e-08
-3.895617125e-08
2.804353955e-08
-4.323801483e-08
3.420172222e-08
-4.719117432e-08
4.082662713e-08
-5.078704718e-08
4.786726497e-08
-5.400065205e-08
5.526966103e-08
-5.681107829e-08
6.297742457e-08
-5.92019475e-08
7.093238065e-08
-6.116187801e-08
7.907526401e-08
-6.268494399e-08
8.734647242e-08
-6.377112039e-08
9.568687549e-08
-6.442670568e-08
1.040386725e-07
-6.46647152e-08
1.123462909e-07
-6.450523952e-08
1.205573156e-07
-6.397576433e-08
1.286234357e-07
-6.311145243e-08
1.365013928e-07
-6.195539275e-08
1.441539147e-07
-6.055882891e-08
1.515506141e-07
-5.898137065e-08
1.586687856e-07
-5.72911875e-08
1.654940747e-07
-5.556535305e-08
1.720209718e-07
-5.389029391e-08
1.782530864e-07
-5.236254542e-08
1.842031122e-07
-5.108886977e-08
1.898918088e-07
-5.01880335e-08
1.953472962e-07
-4.979062593e-08
2.005988535e-07
-5.00602125e-08
2.057010285e-07
-5.109703924e-08
2.105793135e-07
-5.327819444e-08
2.15780044e-07
-5.539828426e-08
2.189174816e-07
-6.530685404e-08
2.331747339e-07
-4.647733809e-08
2.044313915e-07
-1.679758351e-07
2.145609802e-06
3.698050853e-10
-3.138932811e-09
1.477901751e-09
-9.42866885e-09
3.316465472e-09
-1.56587475e-08
5.871764885e-09
-2.177291678e-08
9.124422902e-09
-2.77227689e-08
1.304950154e-08
-3.34614872e-08
1.761672812e-08
-3.894466595e-08
2.279072789e-08
-4.413017098e-08
2.853129885e-08
-4.897858573e-08
3.479374399e-08
-5.345361937e-08
4.152925845e-08
-5.752256153e-08
4.868537408e-08
-6.115676755e-08
5.620646529e-08
-6.433216934e-08
6.403431888e-08
-6.70298009e-08
7.210876921e-08
-6.923632812e-08
8.036839806e-08
-7.094457259e-08
8.875129669e-08
-7.215401874e-08
9.719588539e-08
-7.287129406e-08
1.056417835e-07
-7.311061294e-08
1.140307202e-07
-7.28941759e-08
1.223074751e-07
-7.225251874e-08
1.304208319e-07
-7.122480883e-08
1.3832453e-07
-6.985909039e-08
1.459781901e-07
-6.821248849e-08
1.53348199e-07
-6.635137893e-08
1.604084962e-07
-6.435148417e-08
1.671411765e-07
-6.229803273e-08
1.735369621e-07
-6.028607893e-08
1.795952356e-07
-5.842081827e-08
1.853242628e-07
-5.68178962e-08
1.907401563e-07
-5.560392636e-08
1.958658396e-07
-5.491630847e-08
2.007226512e-07
-5.491702333e-08
2.053621234e-07
-5.57365106e-08
2.097096205e-07
-5.762569058e-08
2.14325591e-07
-6.001425396e-08
2.16537598e-07
-6.751886009e-08
2.2912124e-07
-5.906097913e-08
1.971027958e-07
-1.359898568e-07
2.359364785e-06
3.77049115e-10
-3.515981927e-09
1.506954641e-09
-1.055857437e-08
3.38170261e-09
-1.753349547e-08
5.987200328e-09
-2.437841449e-08
9.303579051e-09
-3.103914761e-08
1.330527054e-08
-3.746317866e-08
1.796121795e-08
-4.360061333e-08
2.323511099e-08
-4.940406396e-08
2.908564043e-08
-5.48291151e-08
3.546682186e-08
-5.98348007e-08
4.232837557e-08
-6.438411512e-08
4.961616568e-08
-6.844455752e-08
5.727270323e-08
-7.198870672e-08
6.523771639e-08
-7.499481387e-08
7.344878941e-08
-7.744740092e-08
8.184206966e-08
-7.933785259e-08
9.035304045e-08
-8.066498924e-08
9.891735428e-08
-8.143560758e-08
1.07471719e-07
-8.166497731e-08
1.159548262e-07
-8.137728267e-08
1.243083084e-07
-8.060600064e-08
1.3247771e-07
-7.939420999e-08
1.404134497e-07
-7.779482962e-08
1.480717536e-07
-7.58707919e-08
1.554155379e-07
-7.369516264e-08
1.624152114e-07
-7.135115708e-08
1.690492658e-07
-6.893208661e-08
1.753046925e-07
-6.654150502e-08
1.811771688e-07
-6.429329391e-08
1.866709404e-07
-6.231166711e-08
1.917982716e-07
-6.073125688e-08
1.965780589e-07
-5.969609496e-08
2.010271632e-07
-5.936612691e-08
2.05188675e-07
-5.989802162e-08
2.089958784e-07
-6.143289306e-08
2.129611286e-07
-6.397950328e-08
2.143953206e-07
-6.895305116e-08
2.26037814e-07
-7.070347171e-08
1.906334225e-07
-1.006074422e-07
2.566738895e-06
3.851668389e-10
-3.901148765e-09
1.53951119e-09
-1.171291872e-08
3.454827146e-09
-1.944881142e-08
6.116639837e-09
-2.704022717e-08
9.504547141e-09
-3.442705489e-08
1.359228939e-08
-4.155092087e-08
1.834793939e-08
-4.835626328e-08
2.373415184e-08
-5.479027635e-08
2.970838881e-08
-6.080335198e-08
3.62232361e-08
-6.63496479e-08
4.322677434e-08
-7.138765324e-08
5.066301133e-08
-7.588079436e-08
5.847238153e-08
-7.979807674e-08
6.659231643e-08
-8.311474856e-08
7.495788763e-08
-8.581297188e-08
8.350252259e-08
-8.78824873e-08
9.215879041e-08
-8.932125677e-08
1.008592522e-07
-9.013606901e-08
1.095373677e-07
-9.034309248e-08
1.181284471e-07
-8.996836177e-08
1.26570633e-07
-8.904818614e-08
1.348058951e-07
-8.762947162e-08
1.42781017e-07
-8.576995111e-08
1.504485511e-07
-8.353832544e-08
1.577677132e-07
-8.101432431e-08
1.647052066e-07
-7.828864991e-08
1.712358669e-07
-7.54627463e-08
1.773430556e-07
-7.264869313e-08
1.830189437e-07
-6.996918137e-08
1.882643822e-07
-6.755710499e-08
1.930882905e-07
-6.555516443e-08
1.975068696e-07
-6.411467338e-08
2.015361106e-07
-6.339536712e-08
2.052099009e-07
-6.357181122e-08
2.08479312e-07
-6.470230322e-08
2.118367338e-07
-6.733692433e-08
2.125772356e-07
-6.969355201e-08
2.231902347e-07
-8.131646987e-08
1.847878908e-07
-6.221441075e-08
2.768324025e-06
3.941846622e-10
-4.295333426e-09
1.575675139e-09
-1.289440919e-08
3.536066998e-09
-2.140920326e-08
6.260480527e-09
-2.976464068e-08
9.727939146e-09
-3.789451348e-08
1.391143619e-08
-4.573441787e-08
1.87780923e-08
-5.322291934e-08
2.428943213e-08
-6.03016161e-08
3.040157014e-08
-6.691548989e-08
3.706552273e-08
-7.301360037e-08
4.422756777e-08
-7.854969815e-08
5.182966867e-08
-8.34828951e-08
5.980996929e-08
-8.777837719e-08
6.810336408e-08
-9.140814314e-08
7.664214583e-08
-9.43517534e-08
8.535673146e-08
-9.659707267e-08
9.41764633e-08
-9.814098833e-08
1.030304803e-07
-9.89900857e-08
1.118486504e-07
-9.91612622e-08
1.205625514e-07
-9.868226248e-08
1.291064859e-07
-9.75921202e-08
1.374185094e-07
-9.594149476e-08
1.45441453e-07
-9.379289421e-08
1.53123913e-07
-9.122078498e-08
1.604211764e-07
-8.831158724e-08
1.672960648e-07
-8.516353773e-08
1.737196721e-07
-8.188635314e-08
1.79671813e-07
-7.860083346e-08
1.851412928e-07
-7.543866051e-08
1.90125971e-07
-7.254178256e-08
1.94631988e-07
-7.00611808e-08
1.986735875e-07
-6.815627211e-08
2.022661951e-07
-6.698797399e-08
2.054452161e-07
-6.675083146e-08
2.081832414e-07
-6.744032764e-08
2.10911041e-07
-7.006472317e-08
2.110853502e-07
-6.986786025e-08
2.210757643e-07
-9.130688308e-08
1.794556669e-07
-2.058933944e-08
2.964613819e-06
4.041299948e-10
-4.699463419e-09
1.615555083e-09
-1.410583427e-08
3.625663749e-09
-2.341931191e-08
6.41915036e-09
-3.255812726e-08
9.97441862e-09
-4.14497817e-08
1.426366323e-08
-5.002366242e-08
1.925298763e-08
-5.821224367e-08
2.49026846e-08
-6.595131299e-08
3.116740834e-08
-7.318021352e-08
3.799646965e-08
-7.984266156e-08
4.533418265e-08
-8.5887411e-08
5.312027891e-08
-9.12689912e-08
6.12903968e-08
-9.594849489e-08
6.977665071e-08
-9.989439684e-08
7.850828394e-08
-1.030833864e-07
8.741240604e-08
-1.055011945e-07
9.641481221e-08
-1.071433942e-07
1.054408794e-07
-1.080161526e-07
1.144165296e-07
-1.08136912e-07
1.23269247e-07
-1.075349795e-07
1.319291332e-07
-1.062520061e-07
1.403299801e-07
-1.043423413e-07
1.484103383e-07
-1.018732519e-07
1.561145551e-07
-9.892500128e-08
1.633937435e-07
-9.559077522e-08
1.702066654e-07
-9.197645911e-08
1.765205508e-07
-8.820023806e-08
1.823116855e-07
-8.439196756e-08
1.87565662e-07
-8.06926364e-08
1.922774871e-07
-7.725360707e-08
1.964511501e-07
-7.423484311e-08
2.000997768e-07
-7.180489815e-08
2.03238701e-07
-7.012689745e-08
2.059061188e-07
-6.941824855e-08
2.080830102e-07
-6.961721819e-08
2.101865787e-07
-7.216829082e-08
2.099113583e-07
-6.959263896e-08
2.195535111e-07
-1.009487955e-07
1.74509501e-07
2.447475685e-08
3.155981184e-06
4.150316417e-10
-5.114495056e-09
1.659265462e-09
-1.535006808e-08
3.723873209e-09
-2.548391963e-08
6.593100822e-09
-3.542735483e-08
1.024469679e-08
-4.510137761e-08
1.465000463e-08
-5.442897021e-08
1.977404516e-08
-6.333628412e-08
2.55757891e-08
-7.175305683e-08
3.200832074e-08
-7.961274505e-08
3.901911244e-08
-8.685345313e-08
4.655035586e-08
-9.341865426e-08
5.453936428e-08
-9.925799944e-08
6.291905457e-08
-1.04328185e-07
7.161851504e-08
-1.085938571e-07
8.056366354e-08
-1.120285347e-07
8.967799784e-08
-1.146155285e-07
9.888343605e-08
-1.163488321e-07
1.081012418e-07
-1.172339581e-07
1.172530243e-07
-1.172886942e-07
1.262617988e-07
-1.165437537e-07
1.350530907e-07
-1.150432976e-07
1.435560622e-07
-1.128453123e-07
1.517046386e-07
-1.10021828e-07
1.594386043e-07
-1.066589665e-07
1.667046299e-07
-1.028568004e-07
1.734572228e-07
-9.872905151e-08
1.796596052e-07
-9.440262e-08
1.852844546e-07
-9.001681643e-08
1.903142393e-07
-8.572242053e-08
1.947413826e-07
-8.16807497e-08
1.985680559e-07
-7.806151582e-08
2.018067693e-07
-7.504361092e-08
2.044740669e-07
-7.279419432e-08
2.066101804e-07
-7.15543613e-08
2.081899187e-07
-7.119695568e-08
2.096544463e-07
-7.363281755e-08
2.088726277e-07
-6.88108195e-08
2.178545833e-07
-1.099298708e-07
1.700022948e-07
7.236249561e-08
3.342855228e-06
4.269200021e-10
-5.541415054e-09
1.706927109e-09
-1.663007517e-08
3.830966458e-09
-2.760795895e-08
6.782813821e-09
-3.837920215e-08
1.053953233e-08
-4.885809607e-08
1.50715657e-08
-5.89610035e-08
2.034278855e-08
-6.860750688e-08
2.631076774e-08
-7.772103592e-08
3.292691295e-08
-8.622889013e-08
4.01367293e-08
-9.406326933e-08
4.788013015e-08
-1.01162055e-07
5.609182503e-08
-1.074696941e-07
6.470179239e-08
-1.129381522e-07
7.363584488e-08
-1.175279094e-07
8.281629276e-08
-1.212089823e-07
9.216270874e-08
-1.239619443e-07
1.015927923e-07
-1.257789154e-07
1.110233286e-07
-1.266644941e-07
1.203712312e-07
-1.266365965e-07
1.295546541e-07
-1.257271762e-07
1.384941525e-07
-1.239827957e-07
1.471138732e-07
-1.214650327e-07
1.553427471e-07
-1.182507015e-07
1.631156513e-07
-1.144318704e-07
1.703745193e-07
-1.101156679e-07
1.770693769e-07
-1.054239087e-07
1.831592784e-07
-1.00492521e-07
1.886131482e-07
-9.547068576e-08
1.934103463e-07
-9.051961802e-08
1.975409245e-07
-8.581132736e-08
2.010055709e-07
-8.152616156e-08
2.038164836e-07
-7.785452299e-08
2.059911954e-07
-7.496890541e-08
2.07575595e-07
-7.313876017e-08
2.085451763e-07
-7.216653619e-08
2.093198174e-07
-7.440745793e-08
2.079005457e-07
-6.73915469e-08
2.155880289e-07
-1.176155607e-07
1.659050755e-07
1.220957334e-07
3.525638633e-06
4.398271477e-10
-5.981242195e-09
1.758667362e-09
-1.794891536e-08
3.947229721e-09
-2.979652127e-08
6.98880077e-09
-4.142077315e-08
1.085972996e-08
-5.272902519e-08
1.552951906e-08
-6.363079252e-08
2.096084097e-08
-7.403882868e-08
2.710977964e-08
-8.386997447e-08
3.392597309e-08
-9.304508345e-08
4.13528355e-08
-1.014901316e-07
4.93278493e-08
-1.091370686e-07
5.778293623e-08
-1.159247809e-07
6.664491839e-08
-1.218001341e-07
7.583607931e-08
-1.2671907e-07
8.527483245e-08
-1.306477352e-07
9.487650178e-08
-1.335636133e-07
1.045542129e-07
-1.354566263e-07
1.142198907e-07
-1.363301716e-07
1.237853514e-07
-1.362020569e-07
1.331634736e-07
-1.351052981e-07
1.422694269e-07
-1.330887486e-07
1.510219329e-07
-1.302175383e-07
1.593445313e-07
-1.265732995e-07
1.671668182e-07
-1.222541569e-07
1.744256591e-07
-1.173745083e-07
1.810663234e-07
-1.120645725e-07
1.870435022e-07
-1.064696993e-07
1.923222276e-07
-1.007494107e-07
1.968786582e-07
-9.507604809e-08
2.007005516e-07
-8.963322014e-08
2.037873297e-07
-8.461293914e-08
2.061511951e-07
-8.021838775e-08
2.07811305e-07
-7.662901458e-08
2.088185284e-07
-7.414598287e-08
2.091454322e-07
-7.249343926e-08
2.091882805e-07
-7.445030544e-08
2.070948384e-07
-6.529810395e-08
2.13467517e-07
-1.23985447e-07
1.620715031e-07
1.735563459e-07
3.704590368e-06
4.537868194e-10
-6.435029008e-09
1.814619891e-09
-1.930974841e-08
4.072963566e-09
-3.205486491e-08
7.211599e-09
-4.455940853e-08
1.12061374e-08
-5.672356352e-08
1.602510302e-08
-6.844975805e-08
2.162992069e-08
-7.964364625e-08
2.797511516e-08
-9.021516882e-08
3.500846528e-08
-1.000784334e-07
4.267117678e-08
-1.091528429e-07
5.089815246e-08
-1.173640441e-07
5.961834395e-08
-1.246449722e-07
6.875519808e-08
-1.30936988e-07
7.822721155e-08
-1.361910833e-07
8.794860375e-08
-1.403691272e-07
9.783011434e-08
-1.434451237e-07
1.077799241e-07
-1.454064358e-07
1.177046962e-07
-1.462549434e-07
1.275107247e-07
-1.460080851e-07
1.371051742e-07
-1.446997473e-07
1.46397384e-07
-1.423809581e-07
1.553002132e-07
-1.391203671e-07
1.637313858e-07
-1.350044718e-07
1.716148232e-07
-1.301375939e-07
1.7888195e-07
-1.246416347e-07
1.854729447e-07
-1.186555668e-07
1.913378745e-07
-1.123346286e-07
1.964377156e-07
-1.058492514e-07
2.007452862e-07
-9.938361821e-08
2.04246004e-07
-9.313393736e-08
2.069381386e-07
-8.730507315e-08
2.088340559e-07
-8.211430444e-08
2.099547727e-07
-7.774973069e-08
2.103548968e-07
-7.454610633e-08
2.100061786e-07
-7.214472026e-08
2.092892493e-07
-7.373337533e-08
2.065031385e-07
-6.251199235e-08
2.11653447e-07
-1.291319965e-07
1.584545016e-07
2.268339563e-07
3.879924384e-06
4.688343635e-10
-6.903863363e-09
1.874924307e-09
-2.071583833e-08
4.208481925e-09
-3.438842248e-08
7.451770334e-09
-4.780269687e-08
1.157964241e-08
-6.085143552e-08
1.655961651e-08
-7.342973205e-08
2.235183571e-08
-8.543586534e-08
2.890918964e-08
-9.677252262e-08
3.61775226e-08
-1.073467662e-07
4.409572214e-08
-1.170710423e-07
5.259596751e-08
-1.258642893e-07
6.160406049e-08
-1.33653065e-07
7.103985283e-08
-1.403727802e-07
8.081779198e-08
-1.459690222e-07
9.084759688e-08
-1.503989318e-07
1.010350737e-07
-1.536326002e-07
1.112830692e-07
-1.556544311e-07
1.21492561e-07
-1.564644349e-07
1.315638704e-07
-1.560793942e-07
1.413979789e-07
-1.545338555e-07
1.508979194e-07
-1.518808983e-07
1.599702149e-07
-1.481926623e-07
1.685263219e-07
-1.435605784e-07
1.764840641e-07
-1.380953357e-07
1.83769026e-07
-1.319265963e-07
1.903159039e-07
-1.252024443e-07
1.960697994e-07
-1.180885236e-07
2.009873885e-07
-1.1076684e-07
2.050379902e-07
-1.034342194e-07
2.082045546e-07
-9.630050121e-08
2.10484226e-07
-8.958474399e-08
2.118896434e-07
-8.351972121e-08
2.124441013e-07
-7.830418791e-08
2.122059024e-07
-7.430790683e-08
2.111525501e-07
-7.109136715e-08
2.096515659e-07
-7.223239035e-08
2.061422183e-07
-5.900264401e-08
2.100652077e-07
-1.330503405e-07
1.550367478e-07
2.819549351e-07
4.051838531e-06
4.850065864e-10
-7.38886994e-09
1.93972541e-09
-2.217055712e-08
4.35411026e-09
-3.680280728e-08
7.709899244e-09
-5.115848579e-08
1.198117163e-08
-6.512270782e-08
1.713441371e-08
-7.858297403e-08
2.312847349e-08
-9.1429925e-08
2.991453304e-08
-1.03558582e-07
3.743644022e-08
-1.148686733e-07
4.563065709e-08
-1.25265259e-07
5.442650447e-08
-1.346601365e-07
6.374645895e-08
-1.429730193e-07
7.350655743e-08
-1.501328784e-07
8.361693063e-08
-1.560793952e-07
9.398248037e-08
-1.607644814e-07
1.045037145e-07
-1.641538342e-07
1.150777359e-07
-1.662284523e-07
1.255993869e-07
-1.669860856e-07
1.359625345e-07
-1.664425415e-07
1.460614762e-07
-1.646327969e-07
1.557924265e-07
-1.616118483e-07
1.650550639e-07
-1.574552995e-07
1.737540871e-07
-1.522596013e-07
1.818007532e-07
-1.461420015e-07
1.891143758e-07
-1.392402184e-07
1.956237602e-07
-1.317118283e-07
2.012686243e-07
-1.237333873e-07
2.060009851e-07
-1.154992003e-07
2.097864144e-07
-1.072196482e-07
2.126052327e-07
-9.911931905e-08
2.144534223e-07
-9.1432933e-08
2.153440912e-07
-8.441038951e-08
2.153035891e-07
-7.826368507e-08
2.143922935e-07
-7.339661063e-08
2.126009066e-07
-6.929997943e-08
2.102766259e-07
-6.990810896e-08
2.059954189e-07
-5.472143614e-08
2.086164353e-07
-1.356659164e-07
1.517987833e-07
3.388787252e-07
4.220511466e-06
5.023414979e-10
-7.891211428e-09
2.009172108e-09
-2.36773877e-08
4.510182655e-09
-3.930381778e-08
7.986584972e-09
-5.463488804e-08
1.241169089e-08
-6.954781364e-08
1.77509045e-08
-8.392218754e-08
2.396177111e-08
-9.764079148e-08
3.099378457e-08
-1.105905954e-07
3.878866807e-08
-1.226635566e-07
4.728037744e-08
-1.337569682e-07
5.639525043e-08
-1.437750093e-07
6.605226964e-08
-1.526300383e-07
7.616343868e-08
-1.602440473e-07
8.663429992e-08
-1.665502563e-07
9.736461043e-08
-1.714947916e-07
1.082491974e-07
-1.750384209e-07
1.191789858e-07
-1.771582404e-07
1.300422029e-07
-1.778493026e-07
1.407257457e-07
-1.771260841e-07
1.511166885e-07
-1.750237393e-07
1.611038765e-07
-1.71599036e-07
1.705796001e-07
-1.669310229e-07
1.794412693e-07
-1.611212702e-07
1.875930604e-07
-1.542937922e-07
1.949475285e-07
-1.465946863e-07
2.01427148e-07
-1.381914474e-07
2.069658153e-07
-1.292720543e-07
2.115104153e-07
-1.200437998e-07
2.150223754e-07
-1.107316078e-07
2.17479121e-07
-1.015760642e-07
2.188753444e-07
-9.282915588e-08
2.192248021e-07
-8.475984658e-08
2.185577729e-07
-7.759665518e-08
2.169388806e-07
-7.177771764e-08
2.143766338e-07
-6.673773196e-08
2.111918146e-07
-6.672328897e-08
2.061849063e-07
-4.971452706e-08
2.07300315e-07
-1.367751758e-07
1.487615756e-07
3.975367982e-07
4.386142572e-06
5.208781593e-10
-8.412089577e-09
2.083416694e-09
-2.52399262e-08
4.677040443e-09
-4.189744148e-08
8.282438798e-09
-5.824028632e-08
1.287215529e-08
-7.413753004e-08
1.841052878e-08
-8.946056092e-08
2.485376849e-08
-1.040840311e-07
3.214968159e-08
-1.178865083e-07
4.023779577e-08
-1.307516706e-07
4.904947819e-08
-1.425686505e-07
5.850796582e-08
-1.532334968e-07
6.852858202e-08
-1.626506543e-07
7.901908172e-08
-1.707345468e-07
8.988014461e-08
-1.774113189e-07
1.010060456e-07
-1.826206924e-07
1.122855307e-07
-1.863179057e-07
1.236028867e-07
-1.884755962e-07
1.348392118e-07
-1.890856274e-07
1.45873876e-07
-1.881607481e-07
1.56586149e-07
-1.857360121e-07
1.668569124e-07
-1.818697991e-07
1.765704809e-07
-1.766445911e-07
1.856164045e-07
-1.701671934e-07
1.938912281e-07
-1.625686155e-07
2.013002163e-07
-1.540036741e-07
2.077589994e-07
-1.446502301e-07
2.131951799e-07
-1.347082344e-07
2.175499949e-07
-1.243986144e-07
2.20780159e-07
-1.139617715e-07
2.228597377e-07
-1.036556423e-07
2.237818389e-07
-9.375125651e-08
2.235607892e-07
-8.453879636e-08
2.222312934e-07
-7.626715866e-08
2.198629999e-07
-6.94094235e-08
2.164901731e-07
-6.336490436e-08
2.12432257e-07
-6.266537214e-08
2.067289567e-07
-4.401122598e-08
2.06143445e-07
-1.361828021e-07
1.459576907e-07
4.578548801e-07
4.548964407e-06
5.406572708e-10
-8.952746836e-09
2.16261592e-09
-2.686188482e-08
4.855033329e-09
-4.458985883e-08
8.598088669e-09
-6.198334159e-08
1.336357279e-08
-7.890301407e-08
1.911477583e-08
-9.521176385e-08
2.580654546e-08
-1.107758006e-07
3.338503622e-08
-1.254649989e-07
4.178752941e-08
-1.391541637e-07
5.094273927e-08
-1.517238602e-07
6.077067697e-08
-1.630614343e-07
7.118284931e-08
-1.730628264e-07
8.208254693e-08
-1.816342442e-07
9.336530861e-08
-1.886940804e-07
1.049195794e-07
-1.94174963e-07
1.166276069e-07
-1.98025933e-07
1.283665541e-07
-2.002145432e-07
1.400098397e-07
-2.007289128e-07
1.514287042e-07
-1.995796124e-07
1.624939823e-07
-1.968012899e-07
1.730779457e-07
-1.924537623e-07
1.830562972e-07
-1.866229423e-07
1.923101128e-07
-1.794210088e-07
2.007277174e-07
-1.709862197e-07
2.082065209e-07
-1.614824773e-07
2.146547461e-07
-1.51098455e-07
2.199931353e-07
-1.400466231e-07
2.241567225e-07
-1.285622011e-07
2.270968394e-07
-1.169018879e-07
2.28783472e-07
-1.053422744e-07
2.292075653e-07
-9.417534926e-08
2.283836113e-07
-8.371484172e-08
2.263501105e-07
-7.423365725e-08
2.231820825e-07
-6.624139477e-08
2.189441091e-07
-5.912693022e-08
2.139536438e-07
-5.767490606e-08
2.074750845e-07
-3.753266592e-08
2.050816072e-07
-1.337817995e-07
1.433200349e-07
5.197616366e-07
4.709143307e-06
5.61721783e-10
-9.514468608e-09
2.246931649e-09
-2.854709465e-08
5.044518977e-09
-4.73874461e-08
8.934173293e-09
-6.587299583e-08
1.388696393e-08
-8.385580461e-08
1.986518774e-08
-1.011899876e-07
2.682226763e-08
-1.177328803e-07
3.47027124e-08
-1.333454436e-07
4.344169711e-08
-1.478931482e-07
5.296510649e-08
-1.612472694e-07
6.318965437e-08
-1.73285982e-07
7.402287191e-08
-1.838960438e-07
8.536337162e-08
-1.929747437e-07
9.710125887e-08
-2.004319675e-07
1.091187838e-07
-2.061924878e-07
1.212912574e-07
-2.101984063e-07
1.334882097e-07
-2.124114953e-07
1.455747963e-07
-2.128154992e-07
1.574134793e-07
-2.114182951e-07
1.688659765e-07
-2.082537869e-07