/*--------------------------------*- C++ -*----------------------------------*\
| =========                 |                                                 |
| \\      /  F ield         | OpenFOAM: The Open Source CFD Toolbox           |
|  \\    /   O peration     | Version:  v1912                                 |
|   \\  /    A nd           | Website:  www.openfoam.com                      |
|    \\/     M anipulation  |                                                 |
\*---------------------------------------------------------------------------*/
FoamFile
{
    version     2.0;
    format      ascii;
    class       surfaceScalarField;
    location    "0.9";
    object      phi.gas;
}
// * * * * * * * * * * * * * * * * * * * * * * * * * * * * * * * * * * * * * //

dimensions      [0 3 -1 0 0 0 0];
oriented        oriented;


internalField   nonuniform List<scalar> 
9440
(
3.183716012e-10
7.241707342e-09
1.292404355e-09
2.170653568e-08
2.915290632e-09
3.617818122e-08
5.173281117e-09
5.066344881e-08
8.048410655e-09
6.516664206e-08
1.151781071e-08
7.969261023e-08
1.55540083e-08
9.424593467e-08
2.012505681e-08
1.088310673e-07
2.519490961e-08
1.234520931e-07
3.07237761e-08
1.38112742e-07
3.666850931e-08
1.5281636e-07
4.298306326e-08
1.675658389e-07
4.961900724e-08
1.823635602e-07
5.65260955e-08
1.972113395e-07
6.365289233e-08
2.121103712e-07
7.094745121e-08
2.270611736e-07
7.835804663e-08
2.420635371e-07
8.583395613e-08
2.571164727e-07
9.332629061e-08
2.722181636e-07
1.007888705e-07
2.873659191e-07
1.081791472e-07
3.025561287e-07
1.154591703e-07
3.177842152e-07
1.225966068e-07
3.330445838e-07
1.295658206e-07
3.483305593e-07
1.363490451e-07
3.636342943e-07
1.429377321e-07
3.789465927e-07
1.493340219e-07
3.942567868e-07
1.555525718e-07
4.095523809e-07
1.616229092e-07
4.248185285e-07
1.675925487e-07
4.400372684e-07
1.735309836e-07
4.551865873e-07
1.795319691e-07
4.702422009e-07
1.857472549e-07
4.85146698e-07
1.923257092e-07
4.999011138e-07
1.999011833e-07
5.140283522e-07
2.075549585e-07
5.2904822e-07
2.222771738e-07
5.372059166e-07
2.165222043e-07
5.722579278e-07
3.54637151e-07
4.205858662e-07
9.442575219e-07
3.410456948e-10
6.385525303e-09
1.36647153e-09
1.913614076e-08
3.071798481e-09
3.18979473e-08
5.444209652e-09
4.468607544e-08
8.465647474e-09
5.751014244e-08
1.211309999e-08
7.037990948e-08
1.635881055e-08
8.330468968e-08
2.11705168e-08
9.629342441e-08
2.651188167e-08
1.093542679e-07
3.234274747e-08
1.224947643e-07
3.86195514e-08
1.357216599e-07
4.529578617e-08
1.490407895e-07
5.232251479e-08
1.624569651e-07
5.964894141e-08
1.759738643e-07
6.722303838e-08
1.89593919e-07
7.49922288e-08
2.033182052e-07
8.290412316e-08
2.171463357e-07
9.090730804e-08
2.310763575e-07
9.895218484e-08
2.451046526e-07
1.069918564e-07
2.592258436e-07
1.149830603e-07
2.734327005e-07
1.228871494e-07
2.877160467e-07
1.306711253e-07
3.020646546e-07
1.38308733e-07
3.164651206e-07
1.457816427e-07
3.309016867e-07
1.53080713e-07
3.453559811e-07
1.602075458e-07
3.598066064e-07
1.671761959e-07
3.742286273e-07
1.74015353e-07
3.88592575e-07
1.8077122e-07
4.02862996e-07
1.875112983e-07
4.169965568e-07
1.943272143e-07
4.309448523e-07
2.013499484e-07
4.446112319e-07
2.087406231e-07
4.579662102e-07
2.168727648e-07
4.703236266e-07
2.254341463e-07
4.838727335e-07
2.399640899e-07
4.850726393e-07
2.407015143e-07
5.324261296e-07
2.83557229e-07
3.240699962e-07
1.219235795e-06
3.437449685e-10
6.072639867e-09
1.375175837e-09
1.819793145e-08
3.088651722e-09
3.033986284e-08
5.471895998e-09
4.252030562e-08
8.507030828e-09
5.475453637e-08
1.217105332e-08
6.705739464e-08
1.643617045e-08
7.944297161e-08
2.127014224e-08
9.192464141e-08
2.663647051e-08
1.045148066e-07
3.249482724e-08
1.17224833e-07
3.880145195e-08
1.300648935e-07
4.550960904e-08
1.430437948e-07
5.257010156e-08
1.561688093e-07
5.993184201e-08
1.694455072e-07
6.754247956e-08
1.82877588e-07
7.534908296e-08
1.964667146e-07
8.329887762e-08
2.102123523e-07
9.13400345e-08
2.241116131e-07
9.94225085e-08
2.381591076e-07
1.074989237e-07
2.523468025e-07
1.155255033e-07
2.666638837e-07
1.234630434e-07
2.810966161e-07
1.312779332e-07
2.956281947e-07
1.389432259e-07
3.10238566e-07
1.464397721e-07
3.249041894e-07
1.537574134e-07
3.395977136e-07
1.608963908e-07
3.542873537e-07
1.678688494e-07
3.689362853e-07
1.747005827e-07
3.835014045e-07
1.814334532e-07
3.979312186e-07
1.881286758e-07
4.121630925e-07
1.948701666e-07
4.261258222e-07
2.017614286e-07
4.397031911e-07
2.08937785e-07
4.528339776e-07
2.166463876e-07
4.647216702e-07
2.247085307e-07
4.77972973e-07
2.356319925e-07
4.763886465e-07
2.372677385e-07
5.312512305e-07
2.409388363e-07
3.043331937e-07
1.495452762e-06
3.464952007e-10
5.724604894e-09
1.385726834e-09
1.715492724e-08
3.111112011e-09
2.86081827e-08
5.510327709e-09
4.011219799e-08
8.565490175e-09
5.168785864e-08
1.225348176e-08
6.335518893e-08
1.654632121e-08
7.513313024e-08
2.141146085e-08
8.70396062e-08
2.681207228e-08
9.909129147e-08
3.270741766e-08
1.113034523e-07
3.905326237e-08
1.236897525e-07
4.580233312e-08
1.362620336e-07
5.290483263e-08
1.490300909e-07
6.030901128e-08
1.620014487e-07
6.796179577e-08
1.751811343e-07
7.580947391e-08
1.885714562e-07
8.37984341e-08
2.021717883e-07
9.187595654e-08
2.159783616e-07
9.999105364e-08
2.299840673e-07
1.080953559e-07
2.441782683e-07
1.161440397e-07
2.585466193e-07
1.240967947e-07
2.730708877e-07
1.31918828e-07
2.877287663e-07
1.395819055e-07
3.024936584e-07
1.470654273e-07
3.173344028e-07
1.543575775e-07
3.32214879e-07
1.614564576e-07
3.470933944e-07
1.683714559e-07
3.619218484e-07
1.751244875e-07
3.766446225e-07
1.817515422e-07
3.911961633e-07
1.883048366e-07
4.054976572e-07
1.948575636e-07
4.194569803e-07
2.014930335e-07
4.329478501e-07
2.08302935e-07
4.458997383e-07
2.154024478e-07
4.574956105e-07
2.226917915e-07
4.705518462e-07
2.303665858e-07
4.685798615e-07
2.312419855e-07
5.257971179e-07
2.195380496e-07
2.962849304e-07
1.75249956e-06
3.498138025e-10
5.375130071e-09
1.398957329e-09
1.610785927e-08
3.140214171e-09
2.687034711e-08
5.561029349e-09
3.769608602e-08
8.643369174e-09
4.861147869e-08
1.236389847e-08
5.964179971e-08
1.66943383e-08
7.081092087e-08
2.160174178e-08
8.214141613e-08
2.704880908e-08
9.36543043e-08
3.29942453e-08
1.053688377e-07
3.939317199e-08
1.173022573e-07
4.619758705e-08
1.294695244e-07
5.335687982e-08
1.418830417e-07
6.081840376e-08
1.545523709e-07
6.85281069e-08
1.67483949e-07
7.643121921e-08
1.806808091e-07
8.447299521e-08
1.941423095e-07
9.259950879e-08
2.078638732e-07
1.007584965e-07
2.218367413e-07
1.089002448e-07
2.36047741e-07
1.169785159e-07
2.504790664e-07
1.249515075e-07
2.651080654e-07
1.327828399e-07
2.799070235e-07
1.404425661e-07
2.948429268e-07
1.479081897e-07
3.098771779e-07
1.551656978e-07
3.249651869e-07
1.622105689e-07
3.400557818e-07
1.690488633e-07
3.55090289e-07
1.756981388e-07
3.700016076e-07
1.821881042e-07
3.847120337e-07
1.885613802e-07
3.991298169e-07
1.948748595e-07
4.131487847e-07
2.01201104e-07
4.266269547e-07
2.07602092e-07
4.39503734e-07
2.140796108e-07
4.510238679e-07
2.207127475e-07
4.639256765e-07
2.263881277e-07
4.629038291e-07
2.254860156e-07
5.196241374e-07
2.042783754e-07
2.996561891e-07
1.998367075e-06
3.538102533e-10
5.021490153e-09
1.41509158e-09
1.50483704e-08
3.176166714e-09
2.511219104e-08
5.624190635e-09
3.52520551e-08
8.740868967e-09
4.549984275e-08
1.250254793e-08
5.588613484e-08
1.688054425e-08
6.643981924e-08
2.184140473e-08
7.71882214e-08
2.734722531e-08
8.815680195e-08
3.335600472e-08
9.936890122e-08
3.982205221e-08
1.108454428e-07
4.669644717e-08
1.226046139e-07
5.392755449e-08
1.346615304e-07
6.146159818e-08
1.47027896e-07
6.924329399e-08
1.597116602e-07
7.721654012e-08
1.727166803e-07
8.532516413e-08
1.860423942e-07
9.351372252e-08
1.99683507e-07
1.017283483e-07
2.136296963e-07
1.09917641e-07
2.278653373e-07
1.180335919e-07
2.423692475e-07
1.260325365e-07
2.571144468e-07
1.338761251e-07
2.720679218e-07
1.415323019e-07
2.871903806e-07
1.489762705e-07
3.024359819e-07
1.56191422e-07
3.177519622e-07
1.631702199e-07
3.330780919e-07
1.699149927e-07
3.483458399e-07
1.764387193e-07
3.634774769e-07
1.827650014e-07
3.783846869e-07
1.889278396e-07
3.929653379e-07
1.949705535e-07
4.071039483e-07
2.009498588e-07
4.206448271e-07
2.069230159e-07
4.33527946e-07
2.128300144e-07
4.451124439e-07
2.189859958e-07
4.577701291e-07
2.236020342e-07
4.582710989e-07
2.249721421e-07
5.112827501e-07
1.939011323e-07
3.116367416e-07
2.234920357e-06
3.585530613e-10
4.663059596e-09
1.434303481e-09
1.397450421e-08
3.219202109e-09
2.333033329e-08
5.700095292e-09
3.277531821e-08
8.858348816e-09
4.234683693e-08
1.266989757e-08
5.208084585e-08
1.710555085e-08
6.201134509e-08
2.213123717e-08
7.21705215e-08
2.770831771e-08
8.258839379e-08
3.379393521e-08
9.329251113e-08
4.034141758e-08
1.043076049e-07
4.730073559e-08
1.15655215e-07
5.461901781e-08
1.273532981e-07
6.224112522e-08
1.394158266e-07
7.011028642e-08
1.518523861e-07
7.816879249e-08
1.64667778e-07
8.635874945e-08
1.778616343e-07
9.46228842e-08
1.914280504e-07
1.029053986e-07
2.053552422e-07
1.111528643e-07
2.196252295e-07
1.1931515e-07
2.342135487e-07
1.273463697e-07
2.490889907e-07
1.352058403e-07
2.64213356e-07
1.428590341e-07
2.795412136e-07
1.502785039e-07
2.950196576e-07
1.574447284e-07
3.105880143e-07
1.643468836e-07
3.26177372e-07
1.709833991e-07
3.417099575e-07
1.773625916e-07
3.570981692e-07
1.835023591e-07
3.722441358e-07
1.894293849e-07
3.870369631e-07
1.951782474e-07
4.013532063e-07
2.007902153e-07
4.150301324e-07
2.063230977e-07
4.27992594e-07
2.116962253e-07
4.397340541e-07
2.173878323e-07
4.520817012e-07
2.213797579e-07
4.542538544e-07
2.267704054e-07
4.983276222e-07
1.845865454e-07
3.315778929e-07
2.463698509e-06
3.640841125e-10
4.299041126e-09
1.456721732e-09
1.288382996e-08
3.269532271e-09
2.152066321e-08
5.789042278e-09
3.026009642e-08
8.996217822e-09
3.91450738e-08
1.286649947e-08
4.821701945e-08
1.737009036e-08
5.751515774e-08
2.247218898e-08
6.707665963e-08
2.813329246e-08
7.693623575e-08
3.430953875e-08
8.712578443e-08
4.095310541e-08
9.767399008e-08
4.801266416e-08
1.086058937e-07
5.543389468e-08
1.19942442e-07
6.316006019e-08
1.317000249e-07
7.113264559e-08
1.438900099e-07
7.929205753e-08
1.565182832e-07
8.757838387e-08
1.695848044e-07
9.593220823e-08
1.830831845e-07
1.04295473e-07
1.97000294e-07
1.126123825e-07
2.113159055e-07
1.208303364e-07
2.260023768e-07
1.289008784e-07
2.41024371e-07
1.367806479e-07
2.563386107e-07
1.444323134e-07
2.718936527e-07
1.518254715e-07
2.8762968e-07
1.589374426e-07
3.034783116e-07
1.657539382e-07
3.193622604e-07
1.722695532e-07
3.351948868e-07
1.784880253e-07
3.508794462e-07
1.844222162e-07
3.663089772e-07
1.900930726e-07
3.813644949e-07
1.955288401e-07
3.959151685e-07
2.007586879e-07
4.097971624e-07
2.058383116e-07
4.229102056e-07
2.1069056e-07
4.348766116e-07
2.158727172e-07
4.469028924e-07
2.189591791e-07
4.511374477e-07
2.20486943e-07
4.840802649e-07
1.71644227e-07
3.597039285e-07
2.684785115e-06
3.704346129e-10
3.928613447e-09
1.48245553e-09
1.177386275e-08
3.327363554e-09
1.967901227e-08
5.891352161e-09
2.770055148e-08
9.154937964e-09
3.588709511e-08
1.309299267e-08
4.428565155e-08
1.76750189e-08
5.294080136e-08
2.286537601e-08
6.189483694e-08
2.862356943e-08
7.118731316e-08
3.490458486e-08
8.085463764e-08
4.165928097e-08
9.092961395e-08
4.883483986e-08
1.014409546e-07
5.637527909e-08
1.124127685e-07
6.422202796e-08
1.238640345e-07
7.231456912e-08
1.358080703e-07
8.059114492e-08
1.482520084e-07
8.898952578e-08
1.611962896e-07
9.744783574e-08
1.746341825e-07
1.05905428e-07
1.88551342e-07
1.143038006e-07
2.029254112e-07
1.225875408e-07
2.177256754e-07
1.307052823e-07
2.329127687e-07
1.386106585e-07
2.484384324e-07
1.462632289e-07
2.642453151e-07
1.536293639e-07
2.802668066e-07
1.606830301e-07
2.964269468e-07
1.6740639e-07
3.126402693e-07
1.737902738e-07
3.288114849e-07
1.798341987e-07
3.448351652e-07
1.855465897e-07
3.605954491e-07
1.909437329e-07
3.759654966e-07
1.960486709e-07
3.908076674e-07
2.008827255e-07
4.04959765e-07
2.054984334e-07
4.182913179e-07
2.098189101e-07
4.305508569e-07
2.14415338e-07
4.423091459e-07
2.165722614e-07
4.48948875e-07
2.142056569e-07
4.715186675e-07
1.619338257e-07
3.920168496e-07
2.898594332e-06
3.776314135e-10
3.55092736e-09
1.511606633e-09
1.064204215e-08
3.392904875e-09
1.780110331e-08
6.007369449e-09
2.509070735e-08
9.335022859e-09
3.256527063e-08
1.335010018e-08
4.027752524e-08
1.802131307e-08
4.827756254e-08
2.331207642e-08
5.661294843e-08
2.91807787e-08
6.532825429e-08
3.558110744e-08
7.446457768e-08
4.246243484e-08
8.405902918e-08
4.977026295e-08
9.414418589e-08
5.744673316e-08
1.047475148e-07
6.5431203e-08
1.158907787e-07
7.366089181e-08
1.275894367e-07
8.207159454e-08
1.39852052e-07
9.059846117e-08
1.52679719e-07
9.917683623e-08
1.660655234e-07
1.077431509e-07
1.799940473e-07
1.162358562e-07
1.944409296e-07
1.245963853e-07
2.093724909e-07
1.327701264e-07
2.247454284e-07
1.407073887e-07
2.405065816e-07
1.483643359e-07
2.565927636e-07
1.557038679e-07
2.729306466e-07
1.62696423e-07
2.894367503e-07
1.693205643e-07
3.060175002e-07
1.755633934e-07
3.225690848e-07
1.814207333e-07
3.389773711e-07
1.868969846e-07
3.551179014e-07
1.920045758e-07
3.708558257e-07
1.967625457e-07
3.860468805e-07
2.011878043e-07
4.00530939e-07
2.053243123e-07
4.141512821e-07
2.091032005e-07
4.267664238e-07
2.130481419e-07
4.38368602e-07
2.144252005e-07
4.475393923e-07
2.089228748e-07
4.598950308e-07
1.532053848e-07
4.276205876e-07
3.106005063e-06
3.857000636e-10
3.165107504e-09
1.544276106e-09
9.485733024e-09
3.466373522e-09
1.588254404e-08
6.137465233e-09
2.242443562e-08
9.537037587e-09
2.9171778e-08
1.363862703e-08
3.61831859e-08
1.841006705e-08
4.351444138e-08
2.381372751e-08
5.121854912e-08
2.980675714e-08
5.934529138e-08
3.634140153e-08
6.794065732e-08
4.33653801e-08
7.704627484e-08
5.082232468e-08
8.669880254e-08
5.865228561e-08
9.692928574e-08
6.679230886e-08
1.077624914e-07
7.51770862e-08
1.192162358e-07
8.3739678e-08
1.313007194e-07
9.241230584e-08
1.440178841e-07
1.011272096e-07
1.573608092e-07
1.098175604e-07
1.713131593e-07
1.184184177e-07
1.858487015e-07
1.268677159e-07
2.009308994e-07
1.351072629e-07
2.165125958e-07
1.430837291e-07
2.325357878e-07
1.507496029e-07
2.489314907e-07
1.580640858e-07
2.656196832e-07
1.649939134e-07
2.825093699e-07
1.715139981e-07
2.994988174e-07
1.776078169e-07
3.164756647e-07
1.832676923e-07
3.333169521e-07
1.884946453e-07
3.498895232e-07
1.932977514e-07
3.66050443e-07
1.976933908e-07
3.816482011e-07
2.016976418e-07
3.965228873e-07
2.053452191e-07
4.104998717e-07
2.085853316e-07
4.235205695e-07
2.11920648e-07
4.350357031e-07
2.126024353e-07
4.46825039e-07
2.041940647e-07
4.49308899e-07
1.453990225e-07
4.661795385e-07
3.307609303e-06
3.946663054e-10
2.770252089e-09
1.580567967e-09
8.302222885e-09
3.547998827e-09
1.391881793e-08
6.282039465e-09
1.969543874e-08
9.761598694e-09
2.569858006e-08
1.395945796e-08
3.199291301e-08
1.88424896e-08
3.864011666e-08
2.437192233e-08
4.569881281e-08
3.050354491e-08
5.322421314e-08
3.718801991e-08
6.126742073e-08
4.437124934e-08
6.987481463e-08
5.199480504e-08
7.908737686e-08
5.999643053e-08
8.893997739e-08
6.831061813e-08
9.946063373e-08
7.686926402e-08
1.106697608e-07
8.560240151e-08
1.225794276e-07
9.443900954e-08
1.351926393e-07
1.033078909e-07
1.485026627e-07
1.121386115e-07
1.624924142e-07
1.20862487e-07
1.771339275e-07
1.294136024e-07
1.923879159e-07
1.377298451e-07
2.082034401e-07
1.457539288e-07
2.245176915e-07
1.534343856e-07
2.412558888e-07
1.607264902e-07
2.583312892e-07
1.675931012e-07
2.756453328e-07
1.740053968e-07
2.930879862e-07
1.799433155e-07
3.105381438e-07
1.853958194e-07
3.278638357e-07
1.903609547e-07
3.449228466e-07
1.948450374e-07
3.615639384e-07
1.988625122e-07
3.776274963e-07
2.024289187e-07
3.929524619e-07
2.055804938e-07
4.073441777e-07
2.082881479e-07
4.208069362e-07
2.10992281e-07
4.323330406e-07
2.11106499e-07
4.466766394e-07
2.00219333e-07
4.392734701e-07
1.381726171e-07
5.0794995e-07
3.503903651e-06
4.045568285e-10
2.365431914e-09
1.62059111e-09
7.088718032e-09
3.638023951e-09
1.190527547e-08
6.44152324e-09
1.689723281e-08
1.000937487e-08
2.213740428e-08
1.431355281e-08
2.769669782e-08
1.931990165e-08
3.364290907e-08
2.498840645e-08
4.00404924e-08
3.127338175e-08
4.695031823e-08
3.812376942e-08
5.442884959e-08
4.548349137e-08
6.252747528e-08
5.329187037e-08
7.12917691e-08
6.148412637e-08
8.076069954e-08
6.999195311e-08
9.09658091e-08
7.874417865e-08
1.019303804e-07
8.766751045e-08
1.136686085e-07
9.668736257e-08
1.261848007e-07
1.057287592e-07
1.394726253e-07
1.147173053e-07
1.53514433e-07
1.2358021e-07
1.682806704e-07
1.322473476e-07
1.837294056e-07
1.406523342e-07
1.998059785e-07
1.487335999e-07
2.164427892e-07
1.564354271e-07
2.335592262e-07
1.637089199e-07
2.510617479e-07
1.70512884e-07
2.688441143e-07
1.768146424e-07
2.867877942e-07
1.825906165e-07
3.047626021e-07
1.878265687e-07
3.22627241e-07
1.925177002e-07
3.402300683e-07
1.96668207e-07
3.574108749e-07
2.002914547e-07
3.740008833e-07
2.034028771e-07
3.898368254e-07
2.060415579e-07
4.047011819e-07
2.081868327e-07
4.186555243e-07
2.102651353e-07
4.302556214e-07
2.099285683e-07
4.469775415e-07
1.969779469e-07
4.293533741e-07
1.314782235e-07
5.531303466e-07
3.695265134e-06
4.153996557e-10
1.949688986e-09
1.664460314e-09
5.842339165e-09
3.736706455e-09
9.837125894e-09
6.616371554e-09
1.402313838e-08
1.028108315e-08
1.847971888e-08
1.470195408e-08
2.32842093e-08
1.984373422e-08
2.85107543e-08
2.56650741e-08
3.422988176e-08
3.211870269e-08
4.05083693e-08
3.915170674e-08
4.740830915e-08
4.670586773e-08
5.498638441e-08
5.4718071e-08
6.329305689e-08
6.312079508e-08
7.237169688e-08
7.184268713e-08
8.225767642e-08
8.080922906e-08
9.297744492e-08
8.994349607e-08
1.045476092e-07
9.916700541e-08
1.169740431e-07
1.084006495e-07
1.302510516e-07
1.175657037e-07
1.443606178e-07
1.265848942e-07
1.592717555e-07
1.353835078e-07
1.749399927e-07
1.438905234e-07
1.913069995e-07
1.520397422e-07
2.083003778e-07
1.597708839e-07
2.258336215e-07
1.670306147e-07
2.43806267e-07
1.737734941e-07
2.621042036e-07
1.799628491e-07
2.806001546e-07
1.855715074e-07
2.99154453e-07
1.905821241e-07
3.176159906e-07
1.949873368e-07
3.358231568e-07
1.987895368e-07
3.536059881e-07
2.020015239e-07
3.707853897e-07
2.046399303e-07
3.871940416e-07
2.067459578e-07
4.025907277e-07
2.082926323e-07
4.171024951e-07
2.097296751e-07
4.288188491e-07
2.088825952e-07
4.477881183e-07
1.936810201e-07
4.198029538e-07
1.253348385e-07
6.010869569e-07
3.882138901e-06
4.272243399e-10
1.522034939e-09
1.712296794e-09
4.560116637e-09
3.844319342e-09
7.709428345e-09
6.807070329e-09
1.106626562e-08
1.057748869e-08
1.471671567e-08
1.512577633e-08
1.874477029e-08
2.041552353e-08
2.323117086e-08
2.640396341e-08
2.825277764e-08
3.304213305e-08
3.388254715e-08
4.027513361e-08
4.018849417e-08
4.804244853e-08
4.723290772e-08
5.62783384e-08
5.507146343e-08
6.491232139e-08
6.375226821e-08
7.38697464e-08
7.331486083e-08
8.307246495e-08
8.37891891e-08
9.24396045e-08
9.51945885e-08
1.018884418e-07
1.07538792e-07
1.113353702e-07
1.20817e-07
1.206969512e-07
1.350110431e-07
1.298910338e-07
1.500886665e-07
1.388379224e-07
1.660029641e-07
1.474615724e-07
1.826919791e-07
1.556907867e-07
2.000784912e-07
1.634603791e-07
2.180700092e-07
1.70712284e-07
2.365589749e-07
1.773965902e-07
2.554231485e-07
1.834724711e-07
2.74526192e-07
1.889090194e-07
2.937185405e-07
1.936858029e-07
3.128386289e-07
1.977931124e-07
3.317141408e-07
2.012318808e-07
3.501644708e-07
2.040146262e-07
3.679990122e-07
2.061589643e-07
3.850451285e-07
2.077118626e-07
4.010332438e-07
2.086469232e-07
4.161608511e-07
2.093917989e-07
4.280730212e-07
2.079030884e-07
4.49238155e-07
1.898962151e-07
4.112843904e-07
1.196324805e-07
6.508816686e-07
4.064927034e-06
4.400620373e-10
1.081449387e-09
1.764228332e-09
3.238985665e-09
3.961151008e-09
5.517083343e-09
7.014135431e-09
8.019499881e-09
1.089940339e-08
1.08392938e-08
1.558620253e-08
1.40673367e-08
2.103690672e-08
1.779122784e-08
2.72072513e-08
2.209444247e-08
3.404648278e-08
2.705640562e-08
4.149759137e-08
3.275137475e-08
4.949760789e-08
3.924758536e-08
5.797798221e-08
4.660628415e-08
6.686505209e-08
5.48806834e-08
7.608061255e-08
6.41148613e-08
8.554259318e-08
7.434263145e-08
9.516584775e-08
8.558640929e-08
1.04863055e-07
9.785611113e-08
1.145457251e-07
1.111481178e-07
1.241253019e-07
1.254443426e-07
1.335143417e-07
1.407114377e-07
1.426277497e-07
1.56900171e-07
1.513840472e-07
1.739449946e-07
1.597066422e-07
1.91763829e-07
1.675250694e-07
2.10258084e-07
1.747762027e-07
2.293128906e-07
1.814053869e-07
2.487975651e-07
1.8736745e-07
2.685663123e-07
1.926276144e-07
2.884591965e-07
1.971622718e-07
3.083035036e-07
2.009594472e-07
3.279153043e-07
2.040188363e-07
3.471023227e-07
2.06352999e-07
3.65661174e-07
2.079811608e-07
3.83412271e-07
2.089554014e-07
4.000543318e-07
2.092462583e-07
4.158631854e-07
2.092575857e-07
4.280602525e-07
2.070824875e-07
4.513625992e-07
1.862147951e-07
4.038546193e-07
1.142480811e-07
7.024062509e-07
4.243882226e-06
4.539455002e-10
6.268782577e-10
1.820389119e-09
1.875781707e-09
4.087504461e-09
3.254824818e-09
7.238109143e-09
4.875490251e-09
1.124768298e-08
6.838042774e-09
1.608448249e-08
9.240474895e-09
2.170961755e-08
1.217751581e-08
2.807724787e-08
1.573956841e-08
3.513474025e-08
2.001282715e-08
4.282285456e-08
2.507814226e-08
5.107601844e-08
3.101006757e-08
5.98226866e-08
3.787581169e-08
6.898579529e-08
4.573409765e-08
7.848332563e-08
5.463395458e-08
8.822898559e-08
6.461346884e-08
9.813301719e-08
7.569852539e-08
1.081031276e-07
8.790158343e-08
1.180455403e-07
1.012205195e-07
1.278661543e-07
1.156375883e-07
1.374717922e-07
1.311185383e-07
1.467715146e-07
1.476119239e-07
1.556779704e-07
1.650486358e-07
1.641087483e-07
1.833416838e-07
1.719877106e-07
2.023862342e-07
1.792462999e-07
2.220598687e-07
1.858247853e-07
2.422231067e-07
1.916733919e-07
2.627202256e-07
1.967533125e-07
2.83380348e-07
2.010376284e-07
3.040188944e-07
2.045120578e-07
3.244393215e-07
2.071751769e-07
3.444364977e-07
2.090397476e-07
3.637929477e-07
2.101268419e-07
3.823204497e-07
2.104924188e-07
3.996841579e-07
2.101060845e-07
4.162427938e-07
2.09355921e-07
4.288088062e-07
2.064596831e-07
4.541808215e-07
1.828599703e-07
3.974726503e-07
1.091511418e-07
7.557475779e-07
4.41921465e-06
4.689090089e-10
1.572322004e-10
1.880919372e-09
4.672361407e-10
4.223696381e-09
9.172127224e-10
7.479558809e-09
1.62663851e-09
1.162322411e-08
2.703227067e-09
1.662192792e-08
4.252341291e-09
2.24354812e-08
6.37611779e-09
2.901639029e-08
9.1722425e-09
3.631006525e-08
1.273397916e-08
4.425492397e-08
1.714915549e-08
5.278264492e-08
2.249904967e-08
6.181850579e-08
2.885725898e-08
7.128181923e-08
3.628846259e-08
8.108648755e-08
4.484709475e-08
9.114168819e-08
5.457596552e-08
1.013526995e-07
6.55048618e-08
1.116218654e-07
7.764918511e-08
1.218496959e-07
9.100865781e-08
1.319360919e-07
1.05566161e-07
1.41781672e-07
1.212867465e-07
1.512891735e-07
1.381168761e-07
1.603648988e-07
1.559839036e-07
1.689201653e-07
1.747958559e-07
1.768727412e-07
1.944414809e-07
1.8414824e-07
2.147905489e-07
1.906814672e-07
2.356944199e-07
1.964177073e-07
2.569869237e-07
2.013138833e-07
2.784855732e-07
2.053396134e-07
2.999931204e-07
2.084781866e-07
3.21299376e-07
2.107270922e-07
3.421850125e-07
2.120994079e-07
3.624170714e-07
2.126184782e-07
3.817966998e-07
2.123440924e-07
3.999540797e-07
2.112514508e-07
4.173287264e-07
2.097153557e-07
4.303429729e-07
2.060422962e-07
4.577233562e-07
1.7975377e-07
3.921664234e-07
1.043221211e-07
8.109324296e-07
4.591122993e-06
4.849882219e-10
-3.286148777e-10
1.945964609e-09
-9.900274582e-10
4.370055335e-09
-1.501373302e-09
7.739075093e-09
-1.734912041e-09
1.20269633e-08
-1.575230011e-09
1.719990716e-08
-9.093342637e-10
2.321640431e-08
3.725854966e-10
3.002723268e-08
2.375911849e-09
3.757578241e-08
5.2012669e-09
4.579802006e-08
8.943886677e-09
5.462273789e-08
1.369220712e-08
6.397185892e-08
1.952668133e-08
7.376085008e-08
2.651843456e-08
8.389926484e-08
3.472780802e-08
9.429143067e-08
4.420283567e-08
1.048372947e-07
5.497768693e-08
1.154334244e-07
6.707115022e-08
1.25974164e-07
8.048518342e-08
1.36352932e-07
9.520361061e-08
1.464636393e-07
1.111910141e-07
1.562021863e-07
1.283918929e-07
1.654680195e-07
1.467300858e-07
1.741656944e-07
1.661085451e-07
1.822064173e-07
1.864094034e-07
1.895095439e-07
2.074943189e-07
1.960040103e-07
2.292051069e-07
2.016297471e-07
2.513646375e-07
2.063390545e-07
2.737780863e-07
2.10097845e-07
2.962346221e-07
2.128868237e-07
3.185092917e-07
2.147023632e-07
3.403671049e-07
2.155580598e-07
3.615579933e-07
2.154803157e-07
3.818698939e-07
2.145311016e-07
4.008990321e-07
2.126986227e-07
4.191546555e-07
2.103369531e-07
4.327024679e-07
2.058019101e-07
4.620381106e-07
1.768044386e-07
3.880083596e-07
9.972996946e-08
8.679287047e-07
4.759789506e-06
5.022199168e-10
-8.318270171e-10
2.01567458e-09
-2.49949624e-09
4.526918907e-09
-4.006738461e-09
8.017264252e-09
-5.217282682e-09
1.245987722e-08
-6.00777136e-09
1.781984603e-08
-6.257263969e-09
2.405434529e-08
-5.84805399e-09
3.11124408e-08
-4.666676636e-09
3.893537422e-08
-2.604711755e-09
4.745657715e-08
4.40866519e-10
5.660182893e-08
4.566129351e-09
6.628952678e-08
9.858897154e-09
7.643107094e-08
1.639728076e-08
8.693139178e-08
2.424808353e-08
9.768963623e-08
3.346511948e-08
1.086000347e-07
4.408747598e-08
1.195529412e-07
5.613782447e-08
1.304360509e-07
6.96207938e-08
1.411357812e-07
8.452150379e-08
1.515387932e-07
1.008043169e-07
1.615335974e-07
1.184119111e-07
1.710122394e-07
1.372646238e-07
1.798719818e-07
1.572602276e-07
1.880169557e-07
1.782740259e-07
1.953597741e-07
2.001592354e-07
2.018230672e-07
2.227476944e-07
2.073409789e-07
2.458507977e-07
2.118607193e-07
2.692606899e-07
2.153441054e-07
2.927519659e-07
2.177690006e-07
3.160836575e-07
2.191305423e-07
3.390035071e-07
2.194430321e-07
3.612423991e-07
2.187368268e-07
3.825717865e-07
2.170782379e-07
4.025536284e-07
2.14473022e-07
4.217535148e-07
2.112473946e-07
4.359257337e-07
2.058397593e-07
4.67088107e-07
1.740153328e-07
3.853561164e-07
9.53904561e-08
9.266458913e-07
4.925418895e-06
5.206418355e-10
-1.353607276e-09
2.090202578e-09
-4.064770476e-09
4.69463239e-09
-6.604876751e-09
8.314745297e-09
-8.828864134e-09
1.292293341e-08
-1.06051823e-08
1.848320232e-08
-1.180464345e-08
2.495136714e-08
-1.230137273e-08
3.227478173e-08
-1.197347044e-08
4.039246624e-08
-1.070420723e-08
4.923523263e-08
-8.382374799e-09
5.872572733e-08
-4.903753562e-09
6.87786541e-08
-1.725968788e-10
7.930112853e-08
5.896781335e-09
9.019318073e-08
1.33782607e-08
1.013484367e-07
2.233205467e-08
1.126550061e-07
3.280276723e-08
1.239965659e-07
4.481750871e-08
1.352536444e-07
5.838406821e-08
1.463050974e-07
7.348925651e-08
1.570297515e-07
9.009749026e-08
1.673081306e-07
1.081497808e-07
1.770242898e-07
1.275629706e-07
1.860676276e-07
1.482295297e-07
1.943346503e-07
1.700176968e-07
2.017306982e-07
1.927718996e-07
2.081715874e-07
2.163135448e-07
2.135852075e-07
2.404419968e-07
2.179131702e-07
2.649357165e-07
2.211126363e-07
2.895537863e-07
2.231581711e-07
3.140378681e-07
2.240433921e-07
3.381166599e-07
2.237832394e-07
3.614998454e-07
2.224125433e-07
3.839385339e-07
2.200028057e-07
4.049597973e-07
2.165856196e-07
4.251647529e-07
2.124849305e-07
4.400227422e-07
2.065291795e-07
4.728344687e-07
1.721250494e-07
3.841882571e-07
9.128394618e-08
9.870239912e-07
5.0882453e-06
5.402932662e-10
-1.895199424e-09
2.16970654e-09
-5.689566506e-09
4.873549997e-09
-9.301975066e-09
8.632154969e-09
-1.257832513e-08
1.341715391e-08
-1.537862777e-08
1.919148488e-08
-1.756514856e-08
2.590957552e-08
-1.900353135e-08
3.351710062e-08
-1.956314574e-08
4.195080424e-08
-1.911835988e-08
5.113881307e-08
-1.754937567e-08
6.100051303e-08
-1.474325125e-08
7.144675461e-08
-1.059572274e-08
8.238015051e-08
-5.012880871e-09
9.369554945e-08
2.086907029e-09
1.052807055e-07
1.077094272e-08
1.170171869e-07
2.109001508e-08
1.287815039e-07
3.307629772e-08
1.404464636e-07
4.674129435e-08
1.518827534e-07
6.20739538e-08
1.629607315e-07
7.903904849e-08
1.735522857e-07
9.757609272e-08
1.835328427e-07
1.175984297e-07
1.927833219e-07
1.389930815e-07
2.011920174e-07
1.6162096e-07
2.08656436e-07
1.853173301e-07
2.150850199e-07
2.098927119e-07
2.203988446e-07
2.351338844e-07
2.245333756e-07
2.608049618e-07
2.274404563e-07
2.866486881e-07
2.290906442e-07
3.123880483e-07
2.294754688e-07
3.377307788e-07
2.28610112e-07
3.623630359e-07
2.265332611e-07
3.860119561e-07
2.233219927e-07
4.081681308e-07
2.190383766e-07
4.294430378e-07
2.140048774e-07
4.450529502e-07
2.070588434e-07
4.793500006e-07
1.694858493e-07
3.858624562e-07
8.736499799e-08
1.049006326e-06
5.248434894e-06
5.612156661e-10
-2.457890283e-09
2.254349754e-09
-7.377719801e-09
5.064034544e-09
-1.21044163e-08
8.970141924e-09
-1.647461543e-08
1.394357519e-08
-2.033965415e-08
1.99462574e-08
-2.355297668e-08
2.693116543e-08
-2.597131052e-08
3.484229793e-08
-2.74550738e-08
4.361426019e-08
-2.786927023e-08
5.317231566e-08
-2.708478607e-08
6.343251544e-08
-2.497949037e-08
7.430169495e-08
-2.143992269e-08
8.567774768e-08
-1.636324849e-08
9.74500454e-08
-9.659326204e-09
1.095001018e-07
-1.253004376e-09
1.217025017e-07
8.913432265e-09
1.339260753e-07
2.087791612e-08
1.460353203e-07
3.465629419e-08
1.578921019e-07
5.024016633e-08
1.693576239e-07
6.759499446e-08
1.802944287e-07
8.665898907e-08
1.905686183e-07
1.073419768e-07
2.000519709e-07
1.295253532e-07
2.086239431e-07
1.530624047e-07
2.161736191e-07
1.777788243e-07
2.2260148e-07
2.0347379e-07
2.278211548e-07
2.299209854e-07
2.317612925e-07
2.568695527e-07
2.343677097e-07
2.840451125e-07
2.356060239e-07
3.111508884e-07
2.354647645e-07
3.378717173e-07
2.339585757e-07
3.638677677e-07
2.311294476e-07
3.888383458e-07
2.270595287e-07
4.122358737e-07
2.218275898e-07
4.346705804e-07
2.157418827e-07
4.511361898e-07
2.075581927e-07
4.867997346e-07
1.669984849e-07
3.899746415e-07
8.357629695e-08
1.11259709e-06
5.406071281e-06
5.834490366e-10
-3.04300835e-09
2.344289889e-09
-9.133180552e-09
5.266437482e-09
-1.501877332e-08
9.3293386e-09
-2.052696065e-08
1.450321037e-08
-2.550018187e-08
2.074900177e-08