/*--------------------------------*- C++ -*----------------------------------*\
| =========                 |                                                 |
| \\      /  F ield         | OpenFOAM: The Open Source CFD Toolbox           |
|  \\    /   O peration     | Version:  v1912                                 |
|   \\  /    A nd           | Website:  www.openfoam.com                      |
|    \\/     M anipulation  |                                                 |
\*---------------------------------------------------------------------------*/
FoamFile
{
    version     2.0;
    format      ascii;
    class       volScalarField;
    location    "0.9";
    object      T.gas;
}
// * * * * * * * * * * * * * * * * * * * * * * * * * * * * * * * * * * * * * //

dimensions      [0 0 0 1 0 0 0];


internalField   nonuniform List<scalar> 
4800
(
111.5404789
111.5404789
111.5404789
111.5404789
111.5404789
111.5404789
111.5404789
111.5404789
111.5404789
111.5404788
111.5404788
111.5404788
111.5404788
111.5404788
111.5404788
111.5404788
111.5404787
111.5404787
111.5404787
111.5404787
111.5404787
111.5404787
111.5404786
111.5404786
111.5404786
111.5404786
111.5404786
111.5404785
111.5404784
111.5404791
111.5404749
111.5404974
111.5403923
111.5408062
111.53946
111.5429764
111.5357408
111.547351
111.5354238
111.5379976
111.5404672
111.5404672
111.5404672
111.5404671
111.5404671
111.5404671
111.5404671
111.5404671
111.5404671
111.5404671
111.5404671
111.5404671
111.5404671
111.5404671
111.5404671
111.5404671
111.5404671
111.5404671
111.540467
111.540467
111.540467
111.540467
111.540467
111.540467
111.540467
111.5404669
111.5404669
111.5404669
111.5404668
111.5404673
111.5404639
111.5404818
111.5403997
111.5407155
111.5397094
111.5422904
111.5370712
111.5452993
111.5380087
111.5379971
111.5404554
111.5404554
111.5404554
111.5404554
111.5404554
111.5404554
111.5404554
111.5404554
111.5404554
111.5404554
111.5404554
111.5404553
111.5404553
111.5404553
111.5404553
111.5404553
111.5404553
111.5404553
111.5404553
111.5404553
111.5404553
111.5404553
111.5404553
111.5404553
111.5404553
111.5404552
111.5404552
111.5404552
111.5404551
111.5404554
111.5404531
111.5404651
111.5404082
111.5406343
111.5398835
111.5419084
111.5375551
111.5449299
111.5380032
111.5379997
111.5404436
111.5404436
111.5404436
111.5404436
111.5404436
111.5404436
111.5404436
111.5404436
111.5404436
111.5404436
111.5404436
111.5404436
111.5404436
111.5404436
111.5404436
111.5404436
111.5404436
111.5404436
111.5404436
111.5404436
111.5404436
111.5404436
111.5404436
111.5404436
111.5404436
111.5404436
111.5404435
111.5404435
111.5404434
111.5404436
111.5404417
111.5404511
111.5404057
111.5405886
111.5399704
111.541669
111.537951
111.5443938
111.5377615
111.5380051
111.5404318
111.5404318
111.5404318
111.5404318
111.5404318
111.5404318
111.5404318
111.5404318
111.5404318
111.5404318
111.5404318
111.5404318
111.5404318
111.5404319
111.5404319
111.5404319
111.5404319
111.5404319
111.5404319
111.5404319
111.5404319
111.5404319
111.5404319
111.5404319
111.5404319
111.5404319
111.5404318
111.5404318
111.5404317
111.5404318
111.5404302
111.5404382
111.540399
111.5405578
111.5400172
111.5415112
111.5382247
111.5439536
111.5378872
111.5379984
111.54042
111.54042
111.54042
111.54042
111.54042
111.54042
111.54042
111.54042
111.54042
111.5404201
111.5404201
111.5404201
111.5404201
111.5404201
111.5404201
111.5404202
111.5404202
111.5404202
111.5404202
111.5404202
111.5404202
111.5404202
111.5404202
111.5404202
111.5404202
111.5404202
111.5404201
111.5404201
111.54042
111.5404201
111.5404186
111.5404258
111.5403903
111.5405344
111.5400427
111.5414
111.5384345
111.5435425
111.5379076
111.5380014
111.5404082
111.5404082
111.5404082
111.5404082
111.5404082
111.5404082
111.5404083
111.5404083
111.5404083
111.5404083
111.5404083
111.5404083
111.5404084
111.5404084
111.5404084
111.5404084
111.5404084
111.5404085
111.5404085
111.5404085
111.5404085
111.5404085
111.5404086
111.5404086
111.5404085
111.5404085
111.5404085
111.5404084
111.5404083
111.5404084
111.540407
111.5404136
111.5403807
111.5405144
111.5400577
111.5413152
111.538593
111.5431977
111.5379572
111.5380051
111.5403965
111.5403964
111.5403964
111.5403965
111.5403965
111.5403965
111.5403965
111.5403965
111.5403965
111.5403965
111.5403966
111.5403966
111.5403966
111.5403966
111.5403967
111.5403967
111.5403967
111.5403968
111.5403968
111.5403968
111.5403968
111.5403969
111.5403969
111.5403969
111.5403969
111.5403969
111.5403968
111.5403968
111.5403967
111.5403967
111.5403955
111.5404015
111.540371
111.5404955
111.5400702
111.5412319
111.5387708
111.5427956
111.5379915
111.5380062
111.5403847
111.5403847
111.5403847
111.5403847
111.5403847
111.5403847
111.5403847
111.5403847
111.5403847
111.5403848
111.5403848
111.5403848
111.5403849
111.5403849
111.5403849
111.540385
111.540385
111.5403851
111.5403851
111.5403851
111.5403852
111.5403852
111.5403852
111.5403852
111.5403852
111.5403852
111.5403852
111.5403851
111.540385
111.5403851
111.5403839
111.5403894
111.5403614
111.5404764
111.5400819
111.541159
111.538899
111.5425256
111.5379957
111.5380053
111.5403729
111.5403729
111.5403729
111.5403729
111.5403729
111.5403729
111.5403729
111.540373
111.540373
111.540373
111.540373
111.5403731
111.5403731
111.5403732
111.5403732
111.5403733
111.5403733
111.5403733
111.5403734
111.5403734
111.5403735
111.5403735
111.5403736
111.5403736
111.5403736
111.5403736
111.5403736
111.5403735
111.5403734
111.5403735
111.5403724
111.5403773
111.5403519
111.5404565
111.5400958
111.541083
111.5390168
111.542309
111.5379968
111.5380045
111.5403611
111.5403611
111.5403611
111.5403611
111.5403611
111.5403611
111.5403612
111.5403612
111.5403612
111.5403612
111.5403613
111.5403613
111.5403614
111.5403614
111.5403615
111.5403615
111.5403616
111.5403616
111.5403617
111.5403618
111.5403618
111.5403619
111.5403619
111.5403619
111.540362
111.540362
111.540362
111.5403619
111.5403619
111.5403619
111.5403609
111.5403653
111.5403423
111.5404381
111.5401046
111.5410233
111.5390973
111.5421433
111.5379999
111.5380042
111.5403493
111.5403493
111.5403493
111.5403493
111.5403493
111.5403494
111.5403494
111.5403494
111.5403494
111.5403495
111.5403495
111.5403496
111.5403496
111.5403497
111.5403497
111.5403498
111.5403499
111.5403499
111.54035
111.5403501
111.5403502
111.5403502
111.5403503
111.5403503
111.5403504
111.5403504
111.5403504
111.5403504
111.5403503
111.5403503
111.5403495
111.5403534
111.5403327
111.5404197
111.5401138
111.540963
111.5391747
111.5419967
111.5380002
111.5380046
111.5403375
111.5403375
111.5403375
111.5403375
111.5403376
111.5403376
111.5403376
111.5403376
111.5403377
111.5403377
111.5403378
111.5403378
111.5403379
111.5403379
111.540338
111.5403381
111.5403382
111.5403382
111.5403383
111.5403384
111.5403385
111.5403386
111.5403386
111.5403387
111.5403388
111.5403388
111.5403388
111.5403388
111.5403388
111.5403388
111.5403381
111.5403415
111.5403228
111.5404021
111.5401205
111.5409098
111.5392372
111.5417632
111.5380012
111.5380049
111.5403258
111.5403258
111.5403258
111.5403258
111.5403258
111.5403258
111.5403258
111.5403259
111.5403259
111.540326
111.540326
111.5403261
111.5403261
111.5403262
111.5403263
111.5403264
111.5403264
111.5403265
111.5403266
111.5403267
111.5403268
111.5403269
111.540327
111.5403271
111.5403272
111.5403272
111.5403273
111.5403273
111.5403272
111.5403273
111.5403266
111.5403298
111.5403129
111.540385
111.5401262
111.5408583
111.5392954
111.5413544
111.5380027
111.5380049
111.540314
111.540314
111.540314
111.540314
111.540314
111.540314
111.5403141
111.5403141
111.5403141
111.5403142
111.5403142
111.5403143
111.5403144
111.5403145
111.5403145
111.5403146
111.5403147
111.5403148
111.5403149
111.5403151
111.5403152
111.5403153
111.5403154
111.5403155
111.5403156
111.5403157
111.5403157
111.5403158
111.5403158
111.5403158
111.5403153
111.540318
111.5403029
111.5403684
111.5401307
111.5408099
111.5393483
111.5408263
111.5380027
111.5380044
111.5403022
111.5403022
111.5403022
111.5403022
111.5403022
111.5403022
111.5403023
111.5403023
111.5403024
111.5403024
111.5403025
111.5403025
111.5403026
111.5403027
111.5403028
111.5403029
111.540303
111.5403031
111.5403033
111.5403034
111.5403035
111.5403036
111.5403038
111.5403039
111.540304
111.5403041
111.5403042
111.5403043
111.5403043
111.5403043
111.5403039
111.5403064
111.5402928
111.5403523
111.5401342
111.5407635
111.5393984
111.5402695
111.5380023
111.5380042
111.5402904
111.5402904
111.5402904
111.5402904
111.5402904
111.5402905
111.5402905
111.5402905
111.5402906
111.5402906
111.5402907
111.5402908
111.5402909
111.540291
111.5402911
111.5402912
111.5402913
111.5402914
111.5402916
111.5402917
111.5402919
111.540292
111.5402922
111.5402923
111.5402924
111.5402926
111.5402927
111.5402928
111.5402928
111.5402929
111.5402925
111.5402948
111.5402826
111.5403365
111.5401369
111.5407185
111.5394451
111.5397491
111.5380026
111.5380043
111.5402786
111.5402786
111.5402786
111.5402786
111.5402787
111.5402787
111.5402787
111.5402788
111.5402788
111.5402789
111.5402789
111.540279
111.5402791
111.5402792
111.5402793
111.5402794
111.5402796
111.5402797
111.5402799
111.54028
111.5402802
111.5402804
111.5402805
111.5402807
111.5402809
111.540281
111.5402812
111.5402813
111.5402814
111.5402815
111.5402812
111.5402832
111.5402724
111.540321
111.540139
111.5406754
111.5394879
111.5392878
111.5380034
111.5380049
111.5402669
111.5402668
111.5402669
111.5402669
111.5402669
111.5402669
111.5402669
111.540267
111.540267
111.5402671
111.5402672
111.5402672
111.5402673
111.5402674
111.5402676
111.5402677
111.5402678
111.540268
111.5402682
111.5402683
111.5402685
111.5402687
111.5402689
111.5402691
111.5402693
111.5402695
111.5402697
111.5402698
111.54027
111.5402701
111.5402699
111.5402717
111.540262
111.5403059
111.54014
111.5406351
111.5395257
111.5388876
111.5380045
111.5380056
111.5402551
111.5402551
111.5402551
111.5402551
111.5402551
111.5402551
111.5402552
111.5402552
111.5402553
111.5402553
111.5402554
111.5402555
111.5402556
111.5402557
111.5402558
111.540256
111.5402561
111.5402563
111.5402565
111.5402567
111.5402569
111.5402571
111.5402573
111.5402575
111.5402578
111.540258
111.5402582
111.5402584
111.5402586
111.5402587
111.5402586
111.5402602
111.5402517
111.5402912
111.5401403
111.5405956
111.5395625
111.5385441
111.5380057
111.5380061
111.5402433
111.5402433
111.5402433
111.5402433
111.5402433
111.5402434
111.5402434
111.5402434
111.5402435
111.5402435
111.5402436
111.5402437
111.5402438
111.5402439
111.540244
111.5402442
111.5402444
111.5402445
111.5402447
111.540245
111.5402452
111.5402454
111.5402457
111.540246
111.5402462
111.5402465
111.5402467
111.540247
111.5402472
111.5402474
111.5402473
111.5402488
111.5402413
111.5402768
111.5401398
111.540558
111.5395976
111.5382872
111.5380058
111.5380064
111.5402315
111.5402315
111.5402315
111.5402315
111.5402316
111.5402316
111.5402316
111.5402316
111.5402317
111.5402318
111.5402318
111.5402319
111.540232
111.5402321
111.5402323
111.5402324
111.5402326
111.5402328
111.540233
111.5402333
111.5402335
111.5402338
111.5402341
111.5402344
111.5402347
111.540235
111.5402352
111.5402355
111.5402358
111.540236
111.5402361
111.5402374
111.5402308
111.5402625
111.5401389
111.5405222
111.5396293
111.5380638
111.5380059
111.5380069
111.5402198
111.5402198
111.5402198
111.5402198
111.5402198
111.5402198
111.5402198
111.5402199
111.5402199
111.54022
111.54022
111.5402201
111.5402202
111.5402204
111.5402205
111.5402207
111.5402208
111.5402211
111.5402213
111.5402215
111.5402218
111.5402221
111.5402224
111.5402228
111.5402231
111.5402234
111.5402238
111.5402241
111.5402244
111.5402247
111.5402248
111.5402261
111.5402204
111.5402485
111.5401375
111.5404868
111.5396611
111.5380565
111.538006
111.5380076
111.540208
111.540208
111.540208
111.540208
111.540208
111.540208
111.5402081
111.5402081
111.5402081
111.5402082
111.5402083
111.5402083
111.5402084
111.5402086
111.5402087
111.5402089
111.5402091
111.5402093
111.5402095
111.5402098
111.5402101
111.5402104
111.5402108
111.5402111
111.5402115
111.5402119
111.5402123
111.5402127
111.540213
111.5402134
111.5402136
111.5402147
111.5402099
111.5402346
111.5401358
111.5404524
111.539691
111.5380498
111.5380064
111.5380083
111.5401963
111.5401963
111.5401963
111.5401963
111.5401963
111.5401963
111.5401963
111.5401963
111.5401964
111.5401964
111.5401965
111.5401965
111.5401966
111.5401968
111.5401969
111.5401971
111.5401973
111.5401975
111.5401978
111.5401981
111.5401984
111.5401987
111.5401991
111.5401995
111.5401999
111.5402004
111.5402008
111.5402012
111.5402017
111.5402021
111.5402024
111.5402034
111.5401995
111.5402209
111.5401334
111.5404194
111.5397187
111.5380389
111.538007
111.538009
111.5401845
111.5401845
111.5401845
111.5401845
111.5401845
111.5401845
111.5401845
111.5401845
111.5401846
111.5401846
111.5401847
111.5401847
111.5401848
111.540185
111.5401851
111.5401853
111.5401855
111.5401857
111.540186
111.5401863
111.5401867
111.540187
111.5401874
111.5401879
111.5401883
111.5401888
111.5401893
111.5401898
111.5401903
111.5401908
111.5401912
111.5401921
111.540189
111.5402074
111.5401306
111.5403873
111.5397454
111.5380287
111.5380074
111.5380092
111.5401728
111.5401728
111.5401728
111.5401728
111.5401728
111.5401728
111.5401728
111.5401728
111.5401728
111.5401728
111.5401729
111.5401729
111.540173
111.5401731
111.5401733
111.5401734
111.5401737
111.5401739
111.5401742
111.5401745
111.5401749
111.5401753
111.5401757
111.5401762
111.5401767
111.5401772
111.5401778
111.5401783
111.5401789
111.5401795
111.5401799
111.5401808
111.5401785
111.5401941
111.5401273
111.5403568
111.5397695
111.5381196
111.5380068
111.5380084
111.5401611
111.5401611
111.5401611
111.5401611
111.5401611
111.540161
111.540161
111.540161
111.540161
111.540161
111.5401611
111.5401611
111.5401612
111.5401613
111.5401614
111.5401616
111.5401618
111.5401621
111.5401624
111.5401627
111.5401631
111.5401635
111.540164
111.5401645
111.5401651
111.5401656
111.5401663
111.5401669
111.5401675
111.5401681
111.5401687
111.5401695
111.540168
111.5401809
111.5401236
111.5403276
111.5397929
111.5381032
111.5380067
111.5380072
111.5401494
111.5401494
111.5401494
111.5401494
111.5401494
111.5401493
111.5401493
111.5401493
111.5401493
111.5401493
111.5401493
111.5401493
111.5401494
111.5401495
111.5401496
111.5401498
111.54015
111.5401502
111.5401505
111.5401509
111.5401513
111.5401517
111.5401522
111.5401528
111.5401534
111.540154
111.5401547
111.5401554
111.5401561
111.5401568
111.5401575
111.5401582
111.5401575
111.5401679
111.5401194
111.5402996
111.5398139
111.5380865
111.5380065
111.5380061
111.5401378
111.5401378
111.5401377
111.5401377
111.5401377
111.5401376
111.5401376
111.5401375
111.5401375
111.5401375
111.5401375
111.5401375
111.5401375
111.5401376
111.5401377
111.5401379
111.5401381
111.5401383
111.5401386
111.540139
111.5401394
111.5401399
111.5401404
111.540141
111.5401417
111.5401424
111.5401431
111.5401439
111.5401447
111.5401454
111.5401463
111.5401469
111.5401471
111.5401549
111.540115
111.5402727
111.5398328
111.5380708
111.5380068
111.5380053
111.5401261
111.5401261
111.5401261
111.5401261
111.540126
111.540126
111.5401259
111.5401258
111.5401258
111.5401257
111.5401257
111.5401257
111.5401257
111.5401258
111.5401258
111.540126
111.5401262
111.5401264
111.5401267
111.5401271
111.5401275
111.540128
111.5401286
111.5401292
111.5401299
111.5401307
111.5401315
111.5401323
111.5401332
111.5401341
111.5401351
111.5401356
111.5401367
111.5401419
111.5401104
111.5402468
111.53985
111.538056
111.5380078
111.538005
111.5401145
111.5401145
111.5401145
111.5401145
111.5401144
111.5401143
111.5401142
111.5401141
111.5401141
111.540114
111.5401139
111.5401139
111.5401139
111.5401139
111.540114
111.5401141
111.5401143
111.5401145
111.5401148
111.5401152
111.5401156
111.5401161
111.5401167
111.5401174
111.5401181
111.5401189
111.5401198
111.5401207
111.5401217
111.5401226
111.5401239
111.5401242
111.5401263
111.5401288
111.5401058
111.5402214
111.5398658
111.538036
111.5380091
111.5380053
111.540103
111.540103
111.5401029
111.5401029
111.5401028
111.5401027
111.5401026
111.5401025
111.5401024
111.5401022
111.5401021
111.5401021
111.540102
111.540102
111.5401021
111.5401022
111.5401023
111.5401025
111.5401028
111.5401032
111.5401036
111.5401042
111.5401048
111.5401055
111.5401063
111.5401071
111.5401081
111.5401091
111.5401101
111.5401112
111.5401126
111.5401128
111.5401161
111.5401157
111.5401011
111.5401966
111.5398801
111.5380088
111.5380103
111.5380058
111.5400915
111.5400915
111.5400914
111.5400914
111.5400913
111.5400911
111.540091
111.5400908
111.5400907
111.5400905
111.5400904
111.5400903
111.5400902
111.5400902
111.5400902
111.5400902
111.5400903
111.5400905
111.5400908
111.5400912
111.5400916
111.5400922
111.5400928
111.5400936
111.5400944
111.5400953
111.5400963
111.5400974
111.5400985
111.5400996
111.5401013
111.5401013
111.5401059
111.5401024
111.5400963
111.5401728
111.5398928
111.5380525
111.5380099
111.5380056
111.5400801
111.54008
111.54008
111.5400799
111.5400798
111.5400796
111.5400794
111.5400792
111.540079
111.5400789
111.5400787
111.5400785
111.5400784
111.5400783
111.5400782
111.5400783
111.5400783
111.5400785
111.5400788
111.5400791
111.5400796
111.5400801
111.5400808
111.5400815
111.5400824
111.5400834
111.5400844
111.5400856
111.5400869
111.540088
111.54009
111.5400896
111.5400959
111.5400889
111.5400917
111.5401497
111.5399049
111.5381654
111.538005
111.538005
111.5400687
111.5400687
111.5400686
111.5400685
111.5400683
111.5400681
111.5400679
111.5400677
111.5400675
111.5400672
111.540067
111.5400668
111.5400666
111.5400664
111.5400663
111.5400663
111.5400663
111.5400665
111.5400667
111.540067
111.5400675
111.540068
111.5400687
111.5400695
111.5400704
111.5400714
111.5400725
111.5400737
111.5400751
111.5400763
111.5400787
111.5400777
111.540086
111.540075
111.5400873
111.5401267
111.5399156
111.538135
111.5380048
111.5380044
111.5400574
111.5400574
111.5400573
111.5400572
111.540057
111.5400567
111.5400565
111.5400562
111.5400559
111.5400556
111.5400553
111.540055
111.5400548
111.5400546
111.5400544
111.5400543
111.5400543
111.5400544
111.5400546
111.5400549
111.5400553
111.5400558
111.5400565
111.5400573
111.5400583
111.5400593
111.5400605
111.5400618
111.5400633
111.5400645
111.5400674
111.5400656
111.5400764
111.5400608
111.5400829
111.5401047
111.5399244
111.5381138
111.5380046
111.538004
111.5400462
111.5400462
111.5400461
111.5400459
111.5400457
111.5400454
111.5400451
111.5400448
111.5400444
111.5400441
111.5400437
111.5400433
111.540043
111.5400427
111.5400425
111.5400423
111.5400423
111.5400423
111.5400424
111.5400427
111.5400431
111.5400436
111.5400443
111.5400451
111.5400461
111.5400472
111.5400484
111.5400497
111.5400514
111.5400525
111.540056
111.5400532
111.540067
111.5400462
111.5400785
111.5400837
111.5399311
111.5380936
111.5380049
111.5380037
111.5400351
111.5400351
111.540035
111.5400348
111.5400345
111.5400342
111.5400338
111.5400334
111.540033
111.5400326
111.5400321
111.5400317
111.5400313
111.5400309
111.5400306
111.5400304
111.5400302
111.5400302
111.5400302
111.5400305
111.5400308
111.5400313
111.540032
111.5400328
111.5400338
111.5400349
111.5400362
111.5400375
111.5400393
111.5400403
111.5400446
111.5400405
111.5400577
111.5400313
111.5400736
111.5400641
111.5399355
111.5380721
111.5380056
111.5380036
111.5400241
111.5400241
111.5400239
111.5400237
111.5400234
111.5400231
111.5400226
111.5400222
111.5400217
111.5400211
111.5400206
111.5400201
111.5400196
111.5400191
111.5400187
111.5400184
111.5400182
111.540018
111.540018
111.5400182
111.5400185
111.540019
111.5400196
111.5400205
111.5400215
111.5400226
111.5400239
111.5400252
111.5400272
111.5400279
111.5400333
111.5400272
111.5400486
111.5400163
111.5400679
111.5400465
111.539937
111.5380447
111.5380063
111.5380039
111.5400132
111.5400132
111.5400131
111.5400128
111.5400125
111.540012
111.5400116
111.540011
111.5400104
111.5400098
111.5400092
111.5400086
111.540008
111.5400074
111.5400069
111.5400065
111.5400062
111.540006
111.5400059
111.540006
111.5400062
111.5400067
111.5400073
111.5400081
111.5400091
111.5400102
111.5400116
111.5400128
111.5400151
111.5400151
111.540022
111.5400134
111.5400396
111.5400014
111.540061
111.5400311
111.5399363
111.5380179
111.5380066
111.5380045
111.5400025
111.5400025
111.5400023
111.540002
111.5400016
111.5400011
111.5400006
111.54
111.5399993
111.5399986
111.5399979
111.5399972
111.5399965
111.5399959
111.5399953
111.5399948
111.5399944
111.539994
111.5399939
111.5399939
111.539994
111.5399944
111.539995
111.5399958
111.5399968
111.5399979
111.5399993
111.5400003
111.5400029
111.540002
111.5400108
111.539999
111.5400303
111.5399868
111.5400523
111.5400183
111.5399317
111.5380083
111.5380055
111.5380055
111.539992
111.5399919
111.5399917
111.5399914
111.539991
111.5399905
111.5399899
111.5399892
111.5399885
111.5399877
111.539987
111.5399862
111.5399853
111.5399845
111.5399836
111.5399827
111.5399818
111.5399811
111.5399805
111.5399803
111.5399804
111.539981
111.5399818
111.539983
111.5399843
111.5399855
111.5399871
111.5399876
111.5399911
111.5399884
111.5399998
111.5399842
111.5400204
111.539973
111.5400415
111.5400078
111.539925
111.537924
111.5380047
111.5380067
111.5399817
111.5399817
111.5399815
111.5399812
111.5399807
111.5399802
111.5399795
111.5399788
111.539978
111.539977
111.5399758
111.5399743
111.5399724
111.5399702
111.5399675
111.5399647
111.5399619
111.5399594
111.5399575
111.5399565
111.5399566
111.5399581
111.5399609
111.5399643
111.5399678
111.5399706
111.5399737
111.5399738
111.5399796
111.5399739
111.539989
111.5399695
111.540009
111.5399613
111.5400265
111.540002
111.5399155
111.5380024
111.537999
111.5380072
111.539972
111.539972
111.5399717
111.5399714
111.5399708
111.53997
111.539969
111.5399677
111.5399658
111.5399632
111.5399594
111.5399542
111.5399475
111.5399394
111.5399304
111.539921
111.5399121
111.5399041
111.5398978
111.539894
111.5398941
111.5398989
111.5399082
111.53992
111.5399319
111.5399415
111.5399502
111.5399525
111.5399644
111.5399556
111.5399775
111.5399555
111.5399963
111.5399505
111.5400117
111.5399916
111.5399077
111.5378813
111.5379941
111.5380071
111.5399619
111.5399619
111.5399613
111.5399602
111.5399585
111.5399561
111.5399528
111.5399482
111.5399415
111.5399317
111.5399181
111.5399004
111.539879
111.5398553
111.5398309
111.5398074
111.5397855
111.5397655
111.5397481
111.5397356
111.5397316
111.539742
111.5397674
111.539802
111.5398371
111.5398665
111.5398904
111.5399032
111.5399285
111.5399206
111.539957
111.5399452
111.5399866
111.5399375
111.5399939
111.5399938
111.5398856
111.537916
111.5379873
111.5380062
111.5399438
111.5399447
111.5399424
111.5399375
111.5399305
111.5399217
111.5399103
111.5398948
111.5398726
111.5398407
111.5397956
111.5397371
111.5396753
111.5396272
111.5395925
111.5395581
111.5395122
111.5394447
111.5393466
111.5392239
111.5391553
111.5392274
111.5393685
111.5395123
111.5396199
111.5396949
111.5397479
111.5397757
111.5397897
111.5397498
111.5397963
111.5398451
111.5399918
111.5399662
111.5399393
111.5400077
111.5399135
111.537979
111.5379793
111.5380046
111.5398925
111.5398977
111.5398892
111.5398708
111.5398433
111.5398094
111.5397649
111.5396905
111.5395476
111.5392825
111.538903
111.5385532
111.5384425
111.5385626
111.5387397
111.5386683
111.5382173
111.5373961
111.5365465
111.5361047
111.5367574
111.537728
111.5385506
111.5390079
111.539241
111.5393667
111.5393639
111.5390792
111.5384968
111.5382086
111.5387797
111.5389175
111.539574
111.5400993
111.5400597
111.53985
111.5397966
111.5377965
111.5379758
111.5380028
111.5396717
111.5397096
111.5395908
111.5392851
111.5387687
111.538275
111.5376753
111.5366154
111.5349136
111.5330285
111.5319801
111.5321378
111.533204
111.5342071
111.5344613
111.5329398
111.5310099
111.5305975
111.5315318
111.5336533
111.5359186
111.5374536
111.5381349
111.5384188
111.5384456
111.5376755
111.5354446
111.5342438
111.5361962
111.5378291
111.539159
111.5401065
111.5411175
111.5401596
111.5403648
111.5403064
111.5399282
111.5378111
111.5379693
111.5380009
111.5343609
111.5353284
111.5322516
111.5279958
111.5250974
111.524363
111.5239538
111.5241343
111.5258945
111.5278594
111.5296253
111.5310153
111.5317729
111.5316175
111.5306249
111.5306277
111.5319309
111.5334893
111.5350467
111.5369632
111.5380661
111.5383169
111.5372351
111.5353461
111.5317411
111.5319106
111.5344172
111.5363827
111.5376654
111.5384177
111.5389326
111.5395321
111.5405849
111.5415603
111.5406592
111.5402013
111.5399376
111.5378367
111.537963
111.537999
111.5202723
111.5208291
111.5224248
111.5241553
111.525828
111.5269949
111.5280208
111.5292428
111.5306469
111.5319723
111.533015
111.5336566
111.5336277
111.5332245
111.5328973
111.5337152
111.5348651
111.5358698
111.5374939
111.5383094
111.5381172
111.536466
111.5343655
111.5321087
111.5337608
111.5356573
111.536992
111.5378125
111.5383421
111.5385691
111.5387833
111.5390402
111.5397917
111.5410484
111.542114
111.5405024
111.5399209
111.5377994
111.5379608
111.5379977
111.5267468
111.5270621
111.528394
111.5297219
111.5308605
111.5315673
111.532201
111.5330368
111.5338272
111.5345583
111.535024
111.5350678
111.5349029
111.5346224
111.5350118
111.5357321
111.536306
111.5375411
111.5382182
111.5379171
111.5368077
111.5359116
111.5345402
111.535394
111.5366275
111.5375241
111.5382127
111.5384644
111.5386847
111.5387524
111.538842
111.5390011
111.5393876
111.5403656
111.541597
111.5411308
111.5399332
111.5377953
111.5379631
111.5379971
111.5314685
111.5316779
111.5326054
111.5334543
111.5341546
111.5344977
111.5348568
111.5352866
111.5356985
111.5359785
111.5360403
111.535936
111.5358452
111.5359382
111.536349
111.5366545
111.537397
111.5380346
111.5379447
111.5373689
111.5367585
111.5364416
111.5363678
111.5372034
111.5378662
111.538228
111.53888
111.5389652
111.5388868
111.5388883
111.5390176
111.539284
111.5395738
111.5400915
111.5408554
111.5420201
111.5400863
111.5378238
111.5379745
111.5379967
111.5345183
111.5346858
111.535196
111.5358215
111.5361131
111.5362469
111.5364029
111.5365748
111.5367005
111.5367268
111.5366734
111.5366272
111.5366354
111.5368628
111.5370138
111.5373601
111.5378405
111.5379776
111.5377385
111.5374118
111.5371695
111.5370944
111.5374333
111.5377307
111.5381219
111.5386367
111.53893
111.5391195
111.5392438
111.5393343
111.5394384
111.5395772
111.5397629
111.5400612
111.540602
111.5414452
111.5403764
111.5378255
111.5379919
111.5379967
111.5364228
111.5365242
111.5368552
111.5371764
111.5372408
111.5372489
111.5372622
111.5372682
111.5372424
111.5371908
111.5371554
111.5371719
111.537245
111.5373672
111.5375031
111.5377333
111.5379445
111.5379191
111.5377598
111.5375893
111.5374879
111.5373369
111.5375674
111.5377253
111.5378723
111.5382925
111.5386769
111.5389913
111.5392009
111.53932
111.5393718
111.5392808
111.5390556
111.5389183
111.5390009
111.539637
111.541018
111.537968
111.5380059
111.5379974
111.5376648
111.5376957
111.5378482
111.5379415
111.537881
111.537799
111.5377136
111.5376305
111.537559
111.5375174
111.5375189
111.537558
111.5376146
111.5376746
111.5377509
111.5378695
111.5379493
111.5379111
111.5378136
111.5376736
111.5375486
111.5373005
111.5374086
111.5375256
111.5377257
111.5380052
111.5382948
111.5385592
111.5387493
111.5388286
111.5388444
111.5388169
111.5385746
111.5383588
111.5382349
111.5382008
111.5384161
111.5380274
111.5380139
111.537999
111.5384865
111.5384442
111.5384457
111.5383875
111.53825
111.5380998
111.53795
111.5378251
111.5377454
111.5377149
111.5377185
111.5377309
111.5377349
111.5377362
111.5377547
111.5377975
111.5378327
111.53782
111.5377798
111.5377373
111.5374225
111.5373507
111.5374069
111.5374857
111.5376321
111.5378095
111.5379976
111.5381783
111.5383273
111.5384309
111.5384729
111.5384547
111.5384147
111.5382531
111.5381769
111.5380893
111.5380418
111.5380306
111.5380155
111.5380018
111.5390734
111.5389539
111.5388409
111.5386846
111.5385049
111.5383187
111.5381405
111.5379917
111.5378808
111.537801
111.537733
111.537659
111.5375766
111.5375028
111.5374625
111.5374645
111.5374982
111.5375535
111.5376029
111.5376238
111.5375354
111.5375354
111.5375537
111.5375796
111.5376295
111.537698
111.5377871
111.5378918
111.5379972
111.5380925
111.5381741
111.5382266
111.5382359
111.5381835
111.5381646
111.5381227
111.5380555
111.5380291
111.5380149
111.538007
111.53949
111.5392865
111.539117
111.5389281
111.5387289
111.5385348
111.5383721
111.5382165
111.5380808
111.5379309
111.5377791
111.5376267
111.53748
111.5373458
111.537248
111.5372085
111.5372272
111.5373133
111.537442
111.5376232
111.53777
111.5378335
111.5378744
111.5378909
111.5378666
111.5378413
111.5378333
111.5378399
111.5378499
111.5378679
111.5379229
111.5380161
111.538091
111.5381189
111.5381516
111.5381399
111.5381139
111.5380498
111.5380154
111.5380164
111.5394865
111.539192
111.5389464
111.5388209
111.5387452
111.5386648
111.5385583
111.538421
111.5382769
111.5381374
111.537987
111.5378397
111.537706
111.5375944
111.5375152
111.537477
111.5374957
111.5375889
111.5377508
111.5378964
111.5380144
111.5381866
111.538241
111.5382672
111.5382397
111.5381773
111.5381063
111.5380346
111.5379883
111.5378977
111.5378967
111.5379056
111.5379389
111.5380484
111.5381778
111.5381617
111.5381529
111.5381079
111.5380359
111.5380332
111.5380212
111.5377772
111.5374821
111.5374053
111.5374993
111.5377011
111.5379294
111.5381238
111.5382916
111.5384025
111.5384383
111.5383877
111.5382617
111.5381092
111.537977
111.5378943
111.5378757
111.5379276
111.5380309
111.5381652
111.5382794
111.5383365
111.5384163
111.538519
111.5385663
111.5385818
111.5384656
111.5383656
111.5382539
111.5381337
111.5380393
111.5379895
111.5379968
111.5380489
111.5381755
111.5382677
111.5382102
111.5381795
111.538174
111.5380737
111.5325382
111.5334294
111.5338216
111.5341275
111.5346498
111.5352507
111.5357824
111.5362785
111.5368271
111.5371714
111.537581
111.5379661
111.5382118