/*--------------------------------*- C++ -*----------------------------------*\
| =========                 |                                                 |
| \\      /  F ield         | OpenFOAM: The Open Source CFD Toolbox           |
|  \\    /   O peration     | Version:  v1912                                 |
|   \\  /    A nd           | Website:  www.openfoam.com                      |
|    \\/     M anipulation  |                                                 |
\*---------------------------------------------------------------------------*/
FoamFile
{
    version     2.0;
    format      ascii;
    class       volScalarField;
    location    "0.9";
    object      Tf.gasAndLiquid;
}
// * * * * * * * * * * * * * * * * * * * * * * * * * * * * * * * * * * * * * //

dimensions      [0 0 0 1 0 0 0];


internalField   nonuniform List<scalar> 
4800
(
111.5404789
111.5404789
111.5404789
111.5404789
111.5404789
111.5404789
111.5404789
111.5404789
111.5404789
111.5404788
111.5404788
111.5404788
111.5404788
111.5404788
111.5404788
111.5404788
111.5404787
111.5404787
111.5404787
111.5404787
111.5404787
111.5404787
111.5404786
111.5404786
111.5404786
111.5404786
111.5404786
111.5404785
111.5404784
111.5404791
111.5404749
111.5404974
111.5403923
111.5408062
111.53946
111.5429764
111.5357408
111.547351
111.5357888
111.538
111.5404672
111.5404672
111.5404672
111.5404671
111.5404671
111.5404671
111.5404671
111.5404671
111.5404671
111.5404671
111.5404671
111.5404671
111.5404671
111.5404671
111.5404671
111.5404671
111.5404671
111.5404671
111.540467
111.540467
111.540467
111.540467
111.540467
111.540467
111.540467
111.5404669
111.5404669
111.5404669
111.5404668
111.5404673
111.5404639
111.5404818
111.5403997
111.5407155
111.5397094
111.5422904
111.5370712
111.5452993
111.538
111.538
111.5404554
111.5404554
111.5404554
111.5404554
111.5404554
111.5404554
111.5404554
111.5404554
111.5404554
111.5404554
111.5404554
111.5404553
111.5404553
111.5404553
111.5404553
111.5404553
111.5404553
111.5404553
111.5404553
111.5404553
111.5404553
111.5404553
111.5404553
111.5404553
111.5404553
111.5404552
111.5404552
111.5404552
111.5404551
111.5404554
111.5404531
111.5404651
111.5404082
111.5406343
111.5398835
111.5419084
111.5375551
111.54493
111.538
111.538
111.5404436
111.5404436
111.5404436
111.5404436
111.5404436
111.5404436
111.5404436
111.5404436
111.5404436
111.5404436
111.5404436
111.5404436
111.5404436
111.5404436
111.5404436
111.5404436
111.5404436
111.5404436
111.5404436
111.5404436
111.5404436
111.5404436
111.5404436
111.5404436
111.5404436
111.5404436
111.5404435
111.5404435
111.5404434
111.5404436
111.5404417
111.5404511
111.5404057
111.5405886
111.5399704
111.541669
111.537951
111.5443939
111.538
111.538
111.5404318
111.5404318
111.5404318
111.5404318
111.5404318
111.5404318
111.5404318
111.5404318
111.5404318
111.5404318
111.5404318
111.5404318
111.5404318
111.5404319
111.5404319
111.5404319
111.5404319
111.5404319
111.5404319
111.5404319
111.5404319
111.5404319
111.5404319
111.5404319
111.5404319
111.5404319
111.5404318
111.5404318
111.5404317
111.5404318
111.5404302
111.5404382
111.540399
111.5405578
111.5400172
111.5415112
111.5382247
111.5439538
111.538
111.538
111.54042
111.54042
111.54042
111.54042
111.54042
111.54042
111.54042
111.54042
111.54042
111.5404201
111.5404201
111.5404201
111.5404201
111.5404201
111.5404201
111.5404202
111.5404202
111.5404202
111.5404202
111.5404202
111.5404202
111.5404202
111.5404202
111.5404202
111.5404202
111.5404202
111.5404201
111.5404201
111.54042
111.5404201
111.5404186
111.5404258
111.5403903
111.5405344
111.5400427
111.5414
111.5384345
111.5435427
111.538
111.538
111.5404082
111.5404082
111.5404082
111.5404082
111.5404082
111.5404082
111.5404083
111.5404083
111.5404083
111.5404083
111.5404083
111.5404083
111.5404084
111.5404084
111.5404084
111.5404084
111.5404084
111.5404085
111.5404085
111.5404085
111.5404085
111.5404085
111.5404086
111.5404086
111.5404085
111.5404085
111.5404085
111.5404084
111.5404083
111.5404084
111.540407
111.5404136
111.5403807
111.5405144
111.5400577
111.5413152
111.538593
111.5431979
111.538
111.538
111.5403965
111.5403964
111.5403964
111.5403965
111.5403965
111.5403965
111.5403965
111.5403965
111.5403965
111.5403965
111.5403966
111.5403966
111.5403966
111.5403966
111.5403967
111.5403967
111.5403967
111.5403968
111.5403968
111.5403968
111.5403968
111.5403969
111.5403969
111.5403969
111.5403969
111.5403969
111.5403968
111.5403968
111.5403967
111.5403967
111.5403955
111.5404015
111.540371
111.5404955
111.5400702
111.5412319
111.5387708
111.5427958
111.538
111.538
111.5403847
111.5403847
111.5403847
111.5403847
111.5403847
111.5403847
111.5403847
111.5403847
111.5403847
111.5403848
111.5403848
111.5403848
111.5403849
111.5403849
111.5403849
111.540385
111.540385
111.5403851
111.5403851
111.5403851
111.5403852
111.5403852
111.5403852
111.5403852
111.5403852
111.5403852
111.5403852
111.5403851
111.540385
111.5403851
111.5403839
111.5403894
111.5403614
111.5404764
111.5400819
111.541159
111.538899
111.5425259
111.538
111.538
111.5403729
111.5403729
111.5403729
111.5403729
111.5403729
111.5403729
111.5403729
111.540373
111.540373
111.540373
111.540373
111.5403731
111.5403731
111.5403732
111.5403732
111.5403733
111.5403733
111.5403733
111.5403734
111.5403734
111.5403735
111.5403735
111.5403736
111.5403736
111.5403736
111.5403736
111.5403736
111.5403735
111.5403734
111.5403735
111.5403724
111.5403773
111.5403519
111.5404565
111.5400958
111.541083
111.5390168
111.5423094
111.538
111.538
111.5403611
111.5403611
111.5403611
111.5403611
111.5403611
111.5403611
111.5403612
111.5403612
111.5403612
111.5403612
111.5403613
111.5403613
111.5403614
111.5403614
111.5403615
111.5403615
111.5403616
111.5403616
111.5403617
111.5403618
111.5403618
111.5403619
111.5403619
111.5403619
111.540362
111.540362
111.540362
111.5403619
111.5403619
111.5403619
111.5403609
111.5403653
111.5403423
111.5404381
111.5401046
111.5410233
111.5390973
111.5421437
111.538
111.538
111.5403493
111.5403493
111.5403493
111.5403493
111.5403493
111.5403494
111.5403494
111.5403494
111.5403494
111.5403495
111.5403495
111.5403496
111.5403496
111.5403497
111.5403497
111.5403498
111.5403499
111.5403499
111.54035
111.5403501
111.5403502
111.5403502
111.5403503
111.5403503
111.5403504
111.5403504
111.5403504
111.5403504
111.5403503
111.5403503
111.5403495
111.5403534
111.5403327
111.5404197
111.5401138
111.540963
111.5391747
111.5419972
111.538
111.538
111.5403375
111.5403375
111.5403375
111.5403375
111.5403376
111.5403376
111.5403376
111.5403376
111.5403377
111.5403377
111.5403378
111.5403378
111.5403379
111.5403379
111.540338
111.5403381
111.5403382
111.5403382
111.5403383
111.5403384
111.5403385
111.5403386
111.5403386
111.5403387
111.5403388
111.5403388
111.5403388
111.5403388
111.5403388
111.5403388
111.5403381
111.5403415
111.5403228
111.5404021
111.5401205
111.5409098
111.5392372
111.54176
111.538
111.538
111.5403258
111.5403258
111.5403258
111.5403258
111.5403258
111.5403258
111.5403258
111.5403259
111.5403259
111.540326
111.540326
111.5403261
111.5403261
111.5403262
111.5403263
111.5403264
111.5403264
111.5403265
111.5403266
111.5403267
111.5403268
111.5403269
111.540327
111.5403271
111.5403272
111.5403272
111.5403273
111.5403273
111.5403272
111.5403273
111.5403266
111.5403298
111.5403129
111.540385
111.5401262
111.5408583
111.5392954
111.5413451
111.538
111.538
111.540314
111.540314
111.540314
111.540314
111.540314
111.540314
111.5403141
111.5403141
111.5403141
111.5403142
111.5403142
111.5403143
111.5403144
111.5403145
111.5403145
111.5403146
111.5403147
111.5403148
111.5403149
111.5403151
111.5403152
111.5403153
111.5403154
111.5403155
111.5403156
111.5403157
111.5403157
111.5403158
111.5403158
111.5403158
111.5403153
111.540318
111.5403029
111.5403684
111.5401307
111.5408099
111.5393483
111.540811
111.538
111.538
111.5403022
111.5403022
111.5403022
111.5403022
111.5403022
111.5403022
111.5403023
111.5403023
111.5403024
111.5403024
111.5403025
111.5403025
111.5403026
111.5403027
111.5403028
111.5403029
111.540303
111.5403031
111.5403033
111.5403034
111.5403035
111.5403036
111.5403038
111.5403039
111.540304
111.5403041
111.5403042
111.5403043
111.5403043
111.5403043
111.5403039
111.5403064
111.5402928
111.5403523
111.5401342
111.5407635
111.5393984
111.5402513
111.538
111.538
111.5402904
111.5402904
111.5402904
111.5402904
111.5402904
111.5402905
111.5402905
111.5402905
111.5402906
111.5402906
111.5402907
111.5402908
111.5402909
111.540291
111.5402911
111.5402912
111.5402913
111.5402914
111.5402916
111.5402917
111.5402919
111.540292
111.5402922
111.5402923
111.5402924
111.5402926
111.5402927
111.5402928
111.5402928
111.5402929
111.5402925
111.5402948
111.5402826
111.5403365
111.5401369
111.5407185
111.5394451
111.5397288
111.538
111.538
111.5402786
111.5402786
111.5402786
111.5402786
111.5402787
111.5402787
111.5402787
111.5402788
111.5402788
111.5402789
111.5402789
111.540279
111.5402791
111.5402792
111.5402793
111.5402794
111.5402796
111.5402797
111.5402799
111.54028
111.5402802
111.5402804
111.5402805
111.5402807
111.5402809
111.540281
111.5402812
111.5402813
111.5402814
111.5402815
111.5402812
111.5402832
111.5402724
111.540321
111.540139
111.5406754
111.5394879
111.5392659
111.538
111.538
111.5402669
111.5402668
111.5402669
111.5402669
111.5402669
111.5402669
111.5402669
111.540267
111.540267
111.5402671
111.5402672
111.5402672
111.5402673
111.5402674
111.5402676
111.5402677
111.5402678
111.540268
111.5402682
111.5402683
111.5402685
111.5402687
111.5402689
111.5402691
111.5402693
111.5402695
111.5402697
111.5402698
111.54027
111.5402701
111.5402699
111.5402717
111.540262
111.5403059
111.54014
111.5406351
111.5395257
111.5388647
111.538
111.538
111.5402551
111.5402551
111.5402551
111.5402551
111.5402551
111.5402551
111.5402552
111.5402552
111.5402553
111.5402553
111.5402554
111.5402555
111.5402556
111.5402557
111.5402558
111.540256
111.5402561
111.5402563
111.5402565
111.5402567
111.5402569
111.5402571
111.5402573
111.5402575
111.5402578
111.540258
111.5402582
111.5402584
111.5402586
111.5402587
111.5402586
111.5402602
111.5402517
111.5402912
111.5401403
111.5405956
111.5395625
111.5385207
111.538
111.538
111.5402433
111.5402433
111.5402433
111.5402433
111.5402433
111.5402434
111.5402434
111.5402434
111.5402435
111.5402435
111.5402436
111.5402437
111.5402438
111.5402439
111.540244
111.5402442
111.5402444
111.5402445
111.5402447
111.540245
111.5402452
111.5402454
111.5402457
111.540246
111.5402462
111.5402465
111.5402467
111.540247
111.5402472
111.5402474
111.5402473
111.5402488
111.5402413
111.5402768
111.5401398
111.540558
111.5395976
111.5382258
111.538
111.538
111.5402315
111.5402315
111.5402315
111.5402315
111.5402316
111.5402316
111.5402316
111.5402316
111.5402317
111.5402318
111.5402318
111.5402319
111.540232
111.5402321
111.5402323
111.5402324
111.5402326
111.5402328
111.540233
111.5402333
111.5402335
111.5402338
111.5402341
111.5402344
111.5402347
111.540235
111.5402352
111.5402355
111.5402358
111.540236
111.5402361
111.5402374
111.5402308
111.5402625
111.5401389
111.5405222
111.5396293
111.538
111.538
111.538
111.5402198
111.5402198
111.5402198
111.5402198
111.5402198
111.5402198
111.5402198
111.5402199
111.5402199
111.54022
111.54022
111.5402201
111.5402202
111.5402204
111.5402205
111.5402207
111.5402208
111.5402211
111.5402213
111.5402215
111.5402218
111.5402221
111.5402224
111.5402228
111.5402231
111.5402234
111.5402238
111.5402241
111.5402244
111.5402247
111.5402248
111.5402261
111.5402204
111.5402485
111.5401375
111.5404868
111.5396611
111.538
111.538
111.538
111.540208
111.540208
111.540208
111.540208
111.540208
111.540208
111.5402081
111.5402081
111.5402081
111.5402082
111.5402083
111.5402083
111.5402084
111.5402086
111.5402087
111.5402089
111.5402091
111.5402093
111.5402095
111.5402098
111.5402101
111.5402104
111.5402108
111.5402111
111.5402115
111.5402119
111.5402123
111.5402127
111.540213
111.5402134
111.5402136
111.5402147
111.5402099
111.5402346
111.5401358
111.5404524
111.539691
111.538
111.538
111.538
111.5401963
111.5401963
111.5401963
111.5401963
111.5401963
111.5401963
111.5401963
111.5401963
111.5401964
111.5401964
111.5401965
111.5401965
111.5401966
111.5401968
111.5401969
111.5401971
111.5401973
111.5401975
111.5401978
111.5401981
111.5401984
111.5401987
111.5401991
111.5401995
111.5401999
111.5402004
111.5402008
111.5402012
111.5402017
111.5402021
111.5402024
111.5402034
111.5401995
111.5402209
111.5401334
111.5404194
111.5397187
111.538
111.538
111.538
111.5401845
111.5401845
111.5401845
111.5401845
111.5401845
111.5401845
111.5401845
111.5401845
111.5401846
111.5401846
111.5401847
111.5401847
111.5401848
111.540185
111.5401851
111.5401853
111.5401855
111.5401857
111.540186
111.5401863
111.5401867
111.540187
111.5401874
111.5401879
111.5401883
111.5401888
111.5401893
111.5401898
111.5401903
111.5401908
111.5401912
111.5401921
111.540189
111.5402074
111.5401306
111.5403873
111.5397454
111.538
111.538
111.538
111.5401728
111.5401728
111.5401728
111.5401728
111.5401728
111.5401728
111.5401728
111.5401728
111.5401728
111.5401728
111.5401729
111.5401729
111.540173
111.5401731
111.5401733
111.5401734
111.5401737
111.5401739
111.5401742
111.5401745
111.5401749
111.5401753
111.5401757
111.5401762
111.5401767
111.5401772
111.5401778
111.5401783
111.5401789
111.5401795
111.5401799
111.5401808
111.5401785
111.5401941
111.5401273
111.5403568
111.5397695
111.538
111.538
111.538
111.5401611
111.5401611
111.5401611
111.5401611
111.5401611
111.540161
111.540161
111.540161
111.540161
111.540161
111.5401611
111.5401611
111.5401612
111.5401613
111.5401614
111.5401616
111.5401618
111.5401621
111.5401624
111.5401627
111.5401631
111.5401635
111.540164
111.5401645
111.5401651
111.5401656
111.5401663
111.5401669
111.5401675
111.5401681
111.5401687
111.5401695
111.540168
111.5401809
111.5401236
111.5403276
111.5397929
111.538
111.538
111.538
111.5401494
111.5401494
111.5401494
111.5401494
111.5401494
111.5401493
111.5401493
111.5401493
111.5401493
111.5401493
111.5401493
111.5401493
111.5401494
111.5401495
111.5401496
111.5401498
111.54015
111.5401502
111.5401505
111.5401509
111.5401513
111.5401517
111.5401522
111.5401528
111.5401534
111.540154
111.5401547
111.5401554
111.5401561
111.5401568
111.5401575
111.5401582
111.5401575
111.5401679
111.5401194
111.5402996
111.539814
111.538
111.538
111.538
111.5401378
111.5401378
111.5401377
111.5401377
111.5401377
111.5401376
111.5401376
111.5401375
111.5401375
111.5401375
111.5401375
111.5401375
111.5401375
111.5401376
111.5401377
111.5401379
111.5401381
111.5401383
111.5401386
111.540139
111.5401394
111.5401399
111.5401404
111.540141
111.5401417
111.5401424
111.5401431
111.5401439
111.5401447
111.5401454
111.5401463
111.5401469
111.5401471
111.5401549
111.540115
111.5402727
111.5398329
111.538
111.538
111.538
111.5401261
111.5401261
111.5401261
111.5401261
111.540126
111.540126
111.5401259
111.5401258
111.5401258
111.5401257
111.5401257
111.5401257
111.5401257
111.5401258
111.5401258
111.540126
111.5401262
111.5401264
111.5401267
111.5401271
111.5401275
111.540128
111.5401286
111.5401292
111.5401299
111.5401307
111.5401315
111.5401323
111.5401332
111.5401341
111.5401351
111.5401356
111.5401367
111.5401419
111.5401104
111.5402468
111.53985
111.538
111.538
111.538
111.5401145
111.5401145
111.5401145
111.5401145
111.5401144
111.5401143
111.5401142
111.5401141
111.5401141
111.540114
111.5401139
111.5401139
111.5401139
111.5401139
111.540114
111.5401141
111.5401143
111.5401145
111.5401148
111.5401152
111.5401156
111.5401161
111.5401167
111.5401174
111.5401181
111.5401189
111.5401198
111.5401207
111.5401217
111.5401226
111.5401239
111.5401242
111.5401263
111.5401288
111.5401058
111.5402214
111.5398659
111.538
111.538
111.538
111.540103
111.540103
111.5401029
111.5401029
111.5401028
111.5401027
111.5401026
111.5401025
111.5401024
111.5401022
111.5401021
111.5401021
111.540102
111.540102
111.5401021
111.5401022
111.5401023
111.5401025
111.5401028
111.5401032
111.5401036
111.5401042
111.5401048
111.5401055
111.5401063
111.5401071
111.5401081
111.5401091
111.5401101
111.5401112
111.5401126
111.5401128
111.5401161
111.5401157
111.5401011
111.5401966
111.5398801
111.538
111.538
111.538
111.5400915
111.5400915
111.5400914
111.5400914
111.5400913
111.5400911
111.540091
111.5400908
111.5400907
111.5400905
111.5400904
111.5400903
111.5400902
111.5400902
111.5400902
111.5400902
111.5400903
111.5400905
111.5400908
111.5400912
111.5400916
111.5400922
111.5400928
111.5400936
111.5400944
111.5400953
111.5400963
111.5400974
111.5400985
111.5400996
111.5401013
111.5401013
111.5401059
111.5401024
111.5400963
111.5401728
111.5398928
111.538
111.538
111.538
111.5400801
111.54008
111.54008
111.5400799
111.5400798
111.5400796
111.5400794
111.5400792
111.540079
111.5400789
111.5400787
111.5400785
111.5400784
111.5400783
111.5400782
111.5400783
111.5400783
111.5400785
111.5400788
111.5400791
111.5400796
111.5400801
111.5400808
111.5400815
111.5400824
111.5400834
111.5400844
111.5400856
111.5400869
111.540088
111.54009
111.5400896
111.5400959
111.5400889
111.5400917
111.5401497
111.5399049
111.538
111.538
111.538
111.5400687
111.5400687
111.5400686
111.5400685
111.5400683
111.5400681
111.5400679
111.5400677
111.5400675
111.5400672
111.540067
111.5400668
111.5400666
111.5400664
111.5400663
111.5400663
111.5400663
111.5400665
111.5400667
111.540067
111.5400675
111.540068
111.5400687
111.5400695
111.5400704
111.5400714
111.5400725
111.5400737
111.5400751
111.5400763
111.5400787
111.5400777
111.540086
111.540075
111.5400873
111.5401267
111.5399156
111.538
111.538
111.538
111.5400574
111.5400574
111.5400573
111.5400572
111.540057
111.5400567
111.5400565
111.5400562
111.5400559
111.5400556
111.5400553
111.540055
111.5400548
111.5400546
111.5400544
111.5400543
111.5400543
111.5400544
111.5400546
111.5400549
111.5400553
111.5400558
111.5400565
111.5400573
111.5400583
111.5400593
111.5400605
111.5400618
111.5400633
111.5400645
111.5400674
111.5400656
111.5400764
111.5400608
111.5400829
111.5401047
111.5399244
111.538
111.538
111.538
111.5400462
111.5400462
111.5400461
111.5400459
111.5400457
111.5400454
111.5400451
111.5400448
111.5400444
111.5400441
111.5400437
111.5400433
111.540043
111.5400427
111.5400425
111.5400423
111.5400423
111.5400423
111.5400424
111.5400427
111.5400431
111.5400436
111.5400443
111.5400451
111.5400461
111.5400472
111.5400484
111.5400497
111.5400514
111.5400525
111.540056
111.5400532
111.540067
111.5400462
111.5400785
111.5400837
111.5399311
111.538
111.538
111.538
111.5400351
111.5400351
111.540035
111.5400348
111.5400345
111.5400342
111.5400338
111.5400334
111.540033
111.5400326
111.5400321
111.5400317
111.5400313
111.5400309
111.5400306
111.5400304
111.5400302
111.5400302
111.5400302
111.5400305
111.5400308
111.5400313
111.540032
111.5400328
111.5400338
111.5400349
111.5400362
111.5400375
111.5400393
111.5400403
111.5400446
111.5400405
111.5400577
111.5400313
111.5400736
111.5400641
111.5399355
111.538
111.538
111.538
111.5400241
111.5400241
111.5400239
111.5400237
111.5400234
111.5400231
111.5400226
111.5400222
111.5400217
111.5400211
111.5400206
111.5400201
111.5400196
111.5400191
111.5400187
111.5400184
111.5400182
111.540018
111.540018
111.5400182
111.5400185
111.540019
111.5400196
111.5400205
111.5400215
111.5400226
111.5400239
111.5400252
111.5400272
111.5400279
111.5400333
111.5400272
111.5400486
111.5400163
111.5400679
111.5400465
111.539937
111.538
111.538
111.538
111.5400132
111.5400132
111.5400131
111.5400128
111.5400125
111.540012
111.5400116
111.540011
111.5400104
111.5400098
111.5400092
111.5400086
111.540008
111.5400074
111.5400069
111.5400065
111.5400062
111.540006
111.5400059
111.540006
111.5400062
111.5400067
111.5400073
111.5400081
111.5400091
111.5400102
111.5400116
111.5400128
111.5400151
111.5400151
111.540022
111.5400134
111.5400396
111.5400014
111.540061
111.5400311
111.5399363
111.538
111.538
111.538
111.5400025
111.5400025
111.5400023
111.540002
111.5400016
111.5400011
111.5400006
111.54
111.5399993
111.5399986
111.5399979
111.5399972
111.5399965
111.5399959
111.5399953
111.5399948
111.5399944
111.539994
111.5399939
111.5399939
111.539994
111.5399944
111.539995
111.5399958
111.5399968
111.5399979
111.5399993
111.5400003
111.5400029
111.540002
111.5400108
111.539999
111.5400303
111.5399868
111.5400523
111.5400183
111.5399317
111.538
111.538
111.538
111.539992
111.5399919
111.5399917
111.5399914
111.539991
111.5399905
111.5399899
111.5399892
111.5399885
111.5399877
111.539987
111.5399862
111.5399853
111.5399845
111.5399836
111.5399827
111.5399818
111.5399811
111.5399805
111.5399803
111.5399804
111.539981
111.5399818
111.539983
111.5399843
111.5399855
111.5399871
111.5399876
111.5399911
111.5399884
111.5399998
111.5399842
111.5400204
111.539973
111.5400415
111.5400078
111.5399251
111.538
111.538
111.538
111.5399817
111.5399817
111.5399815
111.5399812
111.5399807
111.5399802
111.5399795
111.5399788
111.539978
111.539977
111.5399758
111.5399743
111.5399724
111.5399702
111.5399675
111.5399647
111.5399619
111.5399594
111.5399575
111.5399565
111.5399566
111.5399581
111.5399609
111.5399643
111.5399678
111.5399706
111.5399737
111.5399738
111.5399796
111.5399739
111.539989
111.5399695
111.540009
111.5399613
111.5400265
111.540002
111.5399155
111.538
111.538
111.538
111.539972
111.539972
111.5399717
111.5399714
111.5399708
111.53997
111.539969
111.5399677
111.5399658
111.5399632
111.5399594
111.5399542
111.5399475
111.5399394
111.5399304
111.539921
111.5399121
111.5399041
111.5398978
111.539894
111.5398941
111.5398989
111.5399082
111.53992
111.5399319
111.5399415
111.5399502
111.5399525
111.5399644
111.5399556
111.5399775
111.5399555
111.5399963
111.5399505
111.5400117
111.5399916
111.5399078
111.538
111.538
111.538
111.5399619
111.5399619
111.5399613
111.5399602
111.5399585
111.5399561
111.5399528
111.5399482
111.5399415
111.5399317
111.5399181
111.5399004
111.5398791
111.5398555
111.539831
111.5398074
111.5397855
111.5397656
111.5397484
111.5397364
111.5397335
111.5397441
111.539769
111.5398028
111.5398373
111.5398665
111.5398904
111.5399032
111.5399285
111.5399206
111.539957
111.5399452
111.5399866
111.5399375
111.5399939
111.5399938
111.5398856
111.538
111.538
111.538
111.5399438
111.5399447
111.5399424
111.5399375
111.5399305
111.5399217
111.5399103
111.5398949
111.5398731
111.5398425
111.539801
111.539749
111.539693
111.5396436
111.5396028
111.5395643
111.5395213
111.5394676
111.5393981
111.5393184
111.5392736
111.5393172
111.5394152
111.5395277
111.5396229
111.5396953
111.5397479
111.5397759
111.5397908
111.5397514
111.5397941
111.5398443
111.5399914
111.5399661
111.5399393
111.5400077
111.5399135
111.538
111.538
111.538
111.5398926
111.5398978
111.5398896
111.5398721
111.5398473
111.5398178
111.5397805
111.539724
111.5396265
111.5394595
111.5392272
111.5390058
111.5389045
111.5389263
111.538987
111.5389284
111.5386763
111.5382432
111.5378193
111.5376046
111.5378479
111.5382732
111.5387227
111.5390444
111.5392481
111.5393696
111.539383
111.5391761
111.5387183
111.5383728
111.5385255
111.5387263
111.5394353
111.5400519
111.5400538
111.5398498
111.5397967
111.538
111.538
111.538
111.5397165
111.5397434
111.5396742
111.5395018
111.5392206
111.5389506
111.5386299
111.5380982
111.5373304
111.5366341
111.5364076
111.5365518
111.5368186
111.5370293
111.5370412
111.5366032
111.5365338
111.5372872
111.5379893
111.538
111.5377685
111.5378801
111.5381785
111.5384409
111.5385481
111.5381489
111.5370783
111.5373397
111.538
111.538
111.538
111.538
111.5380059
111.5389342
111.5401557
111.5402942
111.5399282
111.538
111.538
111.538
111.5371609
111.5375756
111.5363778
111.5352969
111.5353807
111.5359746
111.5368476
111.538
111.538
111.538
111.538
111.538
111.538
111.538
111.538
111.538
111.538
111.538
111.538
111.538
111.538
111.5379843
111.5376425
111.5369139
111.5363018
111.538
111.538
111.538
111.538
111.538
111.538
111.538
111.538
111.538
111.5389895
111.5400335
111.5399376
111.538
111.538
111.538
111.538
111.538
111.538
111.538
111.538
111.538
111.538
111.538
111.538
111.538
111.538
111.538
111.538
111.538
111.538
111.538
111.538
111.538
111.538
111.538
111.538
111.538
111.538
111.538
111.538
111.538
111.538
111.538
111.538
111.538
111.538
111.538
111.538
111.538
111.538
111.5396426
111.5398805
111.538
111.538
111.538
111.538
111.538
111.538
111.538
111.538
111.538
111.538
111.538
111.538
111.538
111.538
111.538
111.538
111.538
111.538
111.538
111.538
111.538
111.538
111.538
111.538
111.538
111.538
111.538
111.538
111.538
111.538
111.538
111.538
111.538
111.538
111.538
111.538
111.538
111.538
111.5389076
111.5398064
111.538
111.538
111.538
111.538
111.538
111.538
111.538
111.538
111.538
111.538
111.538
111.538
111.538
111.538
111.538
111.538
111.538
111.538
111.538
111.538
111.538
111.538
111.538
111.538
111.538
111.538
111.538
111.538
111.538
111.538
111.538
111.538
111.538
111.538
111.538
111.538
111.538
111.538
111.538
111.5397662
111.538
111.538
111.538
111.538
111.538
111.538
111.538
111.538
111.538
111.538
111.538
111.538
111.538
111.538
111.538
111.538
111.538
111.538
111.538
111.538
111.538
111.538
111.538
111.538
111.538
111.538
111.538
111.538
111.538
111.538
111.538
111.538
111.538
111.538
111.538
111.538
111.538
111.538
111.538
111.5395332
111.538
111.538
111.538
111.538
111.538
111.538
111.538
111.538
111.538
111.538
111.538
111.538
111.538
111.538
111.538
111.538
111.538
111.538
111.538
111.538
111.538
111.538
111.538
111.538
111.538
111.538
111.538
111.538
111.538
111.538
111.538
111.538
111.538
111.538
111.538
111.538
111.538
111.538
111.538
111.5388617
111.538
111.538
111.538
111.538
111.538
111.538
111.538
111.538
111.538
111.538
111.538
111.538
111.538
111.538
111.538
111.538
111.538
111.538
111.538
111.538
111.538
111.538
111.538
111.538
111.538
111.538
111.538
111.538
111.538
111.538
111.538
111.538
111.538
111.538
111.538
111.538
111.538
111.538
111.538
111.538
111.538
111.538
111.538
111.538
111.538
111.538
111.538
111.538
111.538
111.538
111.538
111.538
111.538
111.538
111.538
111.538
111.538
111.538
111.538
111.538
111.538
111.538
111.538
111.538
111.538
111.538
111.538
111.538
111.538
111.538
111.538
111.538
111.538
111.538
111.538
111.538
111.538
111.538
111.538
111.538
111.538
111.538
111.538
111.538
111.538
111.538
111.538
111.538
111.538
111.538
111.538
111.538
111.538
111.538
111.538
111.538
111.538
111.538
111.538
111.538
111.538
111.538
111.538
111.538
111.538
111.538
111.538
111.538
111.538
111.538
111.538
111.538
111.538
111.538
111.538
111.538
111.538
111.538
111.538
111.538
111.538
111.538
111.538
111.538
111.538
111.538
111.538
111.538
111.538
111.538
111.538
111.538
111.538
111.538
111.538
111.538
111.538
111.538
111.538
111.538
111.538
111.538
111.538
111.538
111.538
111.538
111.538
111.538
111.538
111.538
111.538
111.538
111.538
111.538
111.538
111.538
111.538
111.538
111.538
111.538
111.538
111.538
111.538
111.538
111.538
111.538
111.538
111.538
111.538
111.538
111.538
111.538
111.538
111.538
111.538
111.538
111.538
111.538
111.538
111.538
111.538
111.538
111.538
111.538
111.538
111.538
111.538
111.538
111.538
111.538
111.538
111.538
111.538
111.538
111.538
111.538
111.538
111.538
111.538
111.538
111.538
111.538
111.538
111.538
111.538
111.538
111.538
111.538
111.538
111.538
111.538
111.538
111.538
111.538
111.538
111.538
111.538
111.538
111.538
111.538
111.538
111.538
111.538
111.538
111.538
111.538
111.538
111.538
111.538
111.538
111.538
111.538
111.538
111.538
111.538
111.538
111.538
111.538
111.538
111.538
111.538
111.538
111.538
111.538
111.538
111.538
111.538
111.538
111.538
111.538
111.538
111.538
111.538
111.538
111.538
111.538
111.538
111.538
111.538
111.538
111.538
111.538
111.538
111.538
111.538
111.538
111.538
111.538
111.538
111.538
111.538
111.538
111.538
111.538
111.538
111.538
111.538
111.538
111.538
111.538
111.538
111.538
111.538
111.538
111.538
111.538
111.538
111.538
111.538
111.538
111.538
111.538
111.538
111.538
111.538
111.538
111.538
111.538
111.538
111.538
111.538
111.538
111.538
111.538
111.538
111.538
111.538
111.538
111.5942328
111.9679491
111.9790695
111.9405096
111.6851473
111.5384339
111.538
111.538
111.538
111.538
111.538
111.538
111.538
112.0166438
111.9156078
111.538
111.538
111.538
111.538
111.538
111.538
111.538
111.538
111.538
111.538
111.538
111.538
111.538
111.538
111.538
111.538
111.538
111.538
111.538
111.538
111.538
111.538
111.538
111.5440221
111.7820967
112.1573996
112.184497
112.1938418
112.214668
112.252105
112.2220827
112.1700571
112.0911624
112.1199062
112.1764067
111.9968882
112.2120831
112.3619253
112.0306672
112.1501867
111.538
111.538
111.538
111.538
111.538
111.538
111.538
111.538
111.538
111.538
111.538
111.538
111.538
111.538
111.538
111.538
111.538
111.538
111.538
111.538
111.538
111.538
111.5412172
111.6726134
111.9841245
112.1085701
112.1925084
112.2363874
112.2362506
112.2172567
112.2088035
112.1973273
112.200685
112.1846672
112.1247005
112.2118556
112.1937772
112.1349263
112.2724639
112.2372655
111.538
111.538
111.538
111.5391288
111.540585
111.5408767
111.5397761
111.5384521
111.538
111.538
111.538
111.538
111.538
111.538
111.538
111.538
111.538
111.538
111.538
111.538
111.538
111.539536
111.6087024
111.8091102
111.998009
112.1484145
112.2259075
112.2393026
112.2405992
112.2482488
112.253928
112.2608792
112.2597589
112.2486101
112.2463108
112.2229771
112.2207971
112.2464864
112.2152313
112.2452731
111.538
111.538
111.5385267
111.5427223
111.5499643
111.5548078
111.5527515
111.5470804
111.5427941
111.5399623
111.5382769
111.538
111.538
111.538
111.538
111.538
111.538
111.538
111.538
111.538
111.5394269
111.628609
111.7844386
111.9354566
112.1033716
112.2073281
112.2331874
112.2329453
112.2313169
112.2276576
112.2238323
112.2209846
112.2231816
112.2368292
112.2479994
112.2511479
112.2506129
112.2454716
112.2404082
112.2189278
111.538
111.538
111.5397153
111.5499214
111.5766035
111.6069383
111.6107454
111.5966798
111.5808663
111.5665505
111.5551604