/*--------------------------------*- C++ -*----------------------------------*\
| =========                 |                                                 |
| \\      /  F ield         | OpenFOAM: The Open Source CFD Toolbox           |
|  \\    /   O peration     | Version:  v1912                                 |
|   \\  /    A nd           | Website:  www.openfoam.com                      |
|    \\/     M anipulation  |                                                 |
\*---------------------------------------------------------------------------*/
FoamFile
{
    version     2.0;
    format      ascii;
    class       volVectorField;
    location    "0.9";
    object      U.gas_0;
}
// * * * * * * * * * * * * * * * * * * * * * * * * * * * * * * * * * * * * * //

dimensions      [0 1 -1 0 0 0 0];


internalField   nonuniform List<vector> 
4800
(
(0.0007483332885 4.811270164e-19 0.01205994591)
(0.001298168293 9.218296852e-19 0.01204969309)
(0.002046354695 -1.872205012e-17 0.01204990115)
(0.002816791944 -4.205523394e-18 0.0120532105)
(0.003586143648 5.58398736e-19 0.01205834507)
(0.004345959026 8.011675681e-19 0.01206503893)
(0.005091187771 4.867350935e-19 0.01207315576)
(0.005817989311 2.155402254e-18 0.01208261774)
(0.00652309507 -1.237356315e-17 0.0120933481)
(0.007203601448 -1.050227654e-17 0.01210527158)
(0.007856882528 7.299354662e-18 0.01211831137)
(0.008480559004 2.109868172e-17 0.01213238483)
(0.009072494361 1.474816066e-17 0.01214740201)
(0.009630802956 5.325965413e-18 0.01216326498)
(0.01015386412 7.585755743e-19 0.01217986739)
(0.01064033947 1.159212462e-20 0.01219709428)
(0.01108919192 3.263341846e-19 0.01221482201)
(0.01149970537 5.513651476e-19 0.01223291832)
(0.01187150463 5.83963221e-19 0.01225124249)
(0.01220457519 5.492399296e-19 0.0122696455)
(0.01249928267 5.46500538e-19 0.01228797016)
(0.01275639214 5.4803972e-19 0.01230605121)
(0.0129770877 5.46373559e-19 0.01232371517)
(0.01316299295 5.294566644e-19 0.0123407799)
(0.01331619421 5.49915434e-19 0.01235705319)
(0.01343927135 5.320953002e-19 0.01237232897)
(0.01353533541 5.205993397e-19 0.01238638602)
(0.01360807941 5.633801626e-19 0.01239898005)
(0.01366185645 5.719552625e-19 0.01240983247)
(0.01370179537 5.646902061e-19 0.01241861479)
(0.01373395906 5.477670689e-19 0.01242493145)
(0.01376544519 5.321155455e-19 0.01242837411)
(0.01380558483 3.379318516e-19 0.0124277419)
(0.01386462598 1.406224869e-18 0.01242341555)
(0.01396875042 -3.417289167e-18 0.01240425075)
(0.01410433239 -4.636869429e-18 0.01240702369)
(0.01447312976 -4.896324469e-18 0.01225329366)
(0.01438203579 -4.316627843e-18 0.01270507886)
(0.01823671713 -3.423935234e-18 0.009093928241)
(0.01103768678 -1.300017758e-18 0.01990257096)
(0.0008015775343 5.082339077e-19 0.02269591869)
(0.001376084027 1.001020498e-18 0.02267439953)
(0.002158441192 -1.98485585e-17 0.02267606126)
(0.002965590257 -4.748711665e-18 0.02268621594)
(0.003772736349 5.427680055e-19 0.02270176142)
(0.004570789027 8.7843031e-19 0.02272195551)
(0.005354415024 5.281873643e-19 0.02274642187)
(0.006119613329 2.319047397e-18 0.02277492982)
(0.006863029328 -1.274112145e-17 0.02280724531)
(0.007581703048 -1.147206901e-17 0.02284314907)
(0.008272959141 6.909284655e-18 0.02288241246)
(0.008934376095 2.199901595e-17 0.02292478837)
(0.009563779902 1.626184241e-17 0.02297000744)
(0.01015925054 6.310241573e-18 0.02301777603)
(0.01071913525 1.026493683e-18 0.02306777505)
(0.01124206557 -3.84411167e-21 0.02311965933)
(0.0117269763 3.012721608e-19 0.02317305743)
(0.01217312546 5.49966693e-19 0.02322757183)
(0.01258011459 5.984415705e-19 0.02328277932)
(0.01294790902 5.652200456e-19 0.0233382315)
(0.01327685793 5.765982997e-19 0.02339345528)
(0.01356771422 5.731789689e-19 0.02344795306)
(0.0138216546 5.907103865e-19 0.02350120239)
(0.01404030059 5.639120996e-19 0.02355265458)
(0.01422574191 5.402352791e-19 0.02360173078)
(0.0143805625 5.787176662e-19 0.02364781363)
(0.01450787802 6.043109046e-19 0.02369023765)
(0.01461138513 5.777451358e-19 0.02372827191)
(0.01469542749 5.65046322e-19 0.02376108705)
(0.01476509677 5.513833216e-19 0.02378771006)
(0.01482637707 5.664945762e-19 0.02380697158)
(0.01488626173 5.880132902e-19 0.02381764963)
(0.01495328478 3.303457244e-19 0.02381659855)
(0.01503751467 1.413427553e-18 0.0238041405)
(0.01515646298 -3.170117804e-18 0.02375331429)
(0.01530931878 -4.457882375e-18 0.02375405669)
(0.01566933648 -5.080126082e-18 0.02331693006)
(0.0157527264 -4.89680141e-18 0.02452550152)
(0.01673705938 -3.713628134e-18 0.01609841322)
(0.008824423677 -1.593589342e-18 0.04560072139)
(0.0008079023915 4.683245336e-19 0.02075266151)
(0.001385249097 1.005075796e-18 0.02073037993)
(0.002170839315 -1.984178904e-17 0.02073514189)
(0.002981063521 -4.765665263e-18 0.02075250899)
(0.003791426366 5.520517218e-19 0.02077865494)
(0.00459280245 8.755564522e-19 0.02081249248)
(0.005379804476 5.24128397e-19 0.02085345161)
(0.006148408309 2.323049907e-18 0.02090114669)
(0.006895229182 -1.270902664e-17 0.02095520296)
(0.007617264885 -1.149182979e-17 0.02101526051)
(0.008311809627 6.876527109e-18 0.02108094014)
(0.008976415843 2.199731922e-17 0.021151831)
(0.009608885697 1.633485873e-17 0.02122748477)
(0.01020727663 6.304541537e-18 0.02130741233)
(0.0107699142 1.038789073e-18 0.02139108177)
(0.01129540887 -1.345960398e-20 0.02147791741)
(0.01178267486 3.108379507e-19 0.02156729948)
(0.01223094997 5.393474442e-19 0.02165856438)
(0.01263981582 5.83266337e-19 0.02175100539)
(0.01300921788 5.794033418e-19 0.02184387352)
(0.01333948525 6.220925798e-19 0.02193637837)
(0.01363134999 5.990508701e-19 0.02202768865)
(0.01388596631 5.784765631e-19 0.02211693176)
(0.01410492997 5.284439111e-19 0.02220319174)
(0.01429029868 5.376848781e-19 0.02228550384)
(0.01444461371 5.628880628e-19 0.02236284501)
(0.0145709294 5.630669477e-19 0.02243411226)
(0.01467285013 5.7322188e-19 0.02249810355)
(0.0147545743 5.694941913e-19 0.0225534696)
(0.01482096767 5.464810492e-19 0.02259863909)
(0.01487768349 5.216459494e-19 0.02263173055)
(0.01493128941 4.900244945e-19 0.02265073717)
(0.01498914307 3.827390321e-19 0.0226515104)
(0.0150596225 1.389734329e-18 0.022633402)
(0.01515522049 -3.062182162e-18 0.02256244184)
(0.01527618445 -4.462409979e-18 0.022555182)
(0.01549883709 -5.056009575e-18 0.02192869984)
(0.01549746722 -5.052437334e-18 0.02361451768)
(0.01526573017 -3.4208967e-18 0.01359632402)
(0.007497759486 -1.512008004e-18 0.057217678)
(0.0008143449812 4.672625404e-19 0.01965559397)
(0.001395934118 9.907924519e-19 0.01963417445)
(0.002186842974 -1.983052561e-17 0.01964299711)
(0.003002202273 -4.776545677e-18 0.01966788155)
(0.003817624478 5.423493299e-19 0.01970476856)
(0.004623998905 8.741661255e-19 0.01975235643)
(0.005415909862 5.226990956e-19 0.01980991212)
(0.006189288593 2.32474021e-18 0.01987690287)
(0.006940706293 -1.268127596e-17 0.01995283129)
(0.007667122104 -1.150050002e-17 0.02003719716)
(0.00836578954 6.843995704e-18 0.0201294712)
(0.00903422087 2.201362647e-17 0.02022907933)
(0.009670178565 1.636399698e-17 0.02033539462)
(0.01027168081 6.351412552e-18 0.02044773267)
(0.01083701439 1.035282555e-18 0.02056534885)
(0.01136475155 -1.318911363e-20 0.0206874369)
(0.011853769 2.948960792e-19 0.02081312857)
(0.01230326784 5.263237214e-19 0.02094149396)
(0.01271279388 5.916678202e-19 0.02107154259)
(0.01308225758 5.820928977e-19 0.0212022247)
(0.01341195355 6.222097664e-19 0.02133243275)
(0.01370257924 5.852143574e-19 0.02146100234)
(0.01395525296 5.852321305e-19 0.02158671229)
(0.01417153114 5.661275995e-19 0.02170828263)
(0.01435342508 5.533572066e-19 0.021824369)
(0.01450341899 5.6859586e-19 0.02193355171)
(0.01462448671 5.669853103e-19 0.022034311)
(0.01472011477 5.876977295e-19 0.02212500175)
(0.01479432504 5.627382945e-19 0.02220380646)
(0.01485170083 5.480959543e-19 0.02226863704)
(0.01489744565 5.269107227e-19 0.02231701582)
(0.01493755114 4.96287315e-19 0.02234620457)
(0.01497843164 2.694186505e-19 0.02235177111)
(0.01502642412 1.405128688e-18 0.02233251317)
(0.01508826263 -3.166308676e-18 0.02225185862)
(0.01516332985 -4.537905969e-18 0.0222417039)
(0.01525370697 -5.158050225e-18 0.0215514919)
(0.01517257405 -5.032514146e-18 0.02346662206)
(0.01447655445 -3.269424159e-18 0.01300547655)
(0.006873203283 -1.373203844e-18 0.06845712171)
(0.0008221202965 4.671383068e-19 0.01849766362)
(0.001409228813 1.016970905e-18 0.01847760731)
(0.002207365272 -1.9818155e-17 0.01849104641)
(0.00302990517 -4.797457849e-18 0.01852375746)
(0.003852389271 5.411144816e-19 0.01857158641)
(0.004665690451 8.764965584e-19 0.01863310198)
(0.00546435906 5.19194506e-19 0.01870743833)
(0.006244280969 2.333402377e-18 0.01879393684)
(0.007001978389 -1.2643146e-17 0.01889197695)
(0.007734361786 -1.152311375e-17 0.0190009238)
(0.00843863445 6.748554664e-18 0.01912010045)
(0.009112257603 2.19986229e-17 0.01924877097)
(0.009752942363 1.63989884e-17 0.01938613074)
(0.01035865549 6.364155072e-18 0.0195313006)
(0.01092763252 1.041231335e-18 0.0196833234)
(0.01145839487 -2.176231674e-20 0.01984116228)
(0.01194976916 2.875632969e-19 0.02000370016)
(0.01240090737 5.495385018e-19 0.02016974035)
(0.01281130729 5.965545356e-19 0.02033800802)
(0.01318083247 5.786030373e-19 0.02050715212)
(0.01350973136 5.816426481e-19 0.02067574764)
(0.01379865533 5.552955165e-19 0.02084229745)
(0.01404867523 5.546906525e-19 0.02100523325)
(0.01426129652 5.632715612e-19 0.02116291448)
(0.01443847222 5.533483172e-19 0.02131362389)
(0.014582614 5.613727132e-19 0.02145555618)
(0.01469660038 5.596304582e-19 0.02158679667)
(0.01478378587 5.830628544e-19 0.02170528805)
(0.01484800391 5.568501052e-19 0.02180879594)
(0.01489355112 5.243009088e-19 0.02189480891)
(0.01492516957 4.742953971e-19 0.02196040098)
(0.01494806618 5.35240465e-19 0.02200228576)
(0.01496792524 2.923411878e-19 0.02201581004)
(0.01498992245 1.429331622e-18 0.02200019594)
(0.01501614007 -3.287233505e-18 0.02192024102)
(0.01504904751 -4.566234942e-18 0.02191113483)
(0.01505322378 -5.222963996e-18 0.02124281703)
(0.01480912312 -4.966151352e-18 0.02320723453)
(0.01371985084 -3.181956434e-18 0.01288776795)
(0.006356993893 -1.228324335e-18 0.07905761441)
(0.0008314839177 4.545406661e-19 0.01733047528)
(0.001425400577 1.018250085e-18 0.01731196505)
(0.002232615477 -1.980395762e-17 0.01733035097)
(0.003064309953 -4.806284108e-18 0.0173711585)
(0.003895825895 5.296017164e-19 0.01743015481)
(0.004717975187 8.682273869e-19 0.0175058215)
(0.00552525777 5.228294962e-19 0.01759718192)
(0.006313505469 2.341830251e-18 0.01770346584)
(0.007079183181 -1.26082917e-17 0.01782393397)
(0.007819142435 -1.153128752e-17 0.01795782095)
(0.008530525791 6.69582285e-18 0.01810430505)
(0.009210732268 2.193822984e-17 0.0182624904)
(0.009857409867 1.640418223e-17 0.01843139587)
(0.01046846175 6.403545062e-18 0.0186099483)
(0.01104205975 1.042970446e-18 0.01879697839)
(0.011576662 -3.108662601e-20 0.01899121859)
(0.01207103257 2.792462092e-19 0.01919130262)
(0.0125242621 5.205189096e-19 0.01939576632)
(0.0129357885 5.903932756e-19 0.01960304965)
(0.01330541691 5.76316004e-19 0.01981149945)
(0.01363333864 5.875137526e-19 0.0200193727)
(0.01392014839 5.622816517e-19 0.02022483965)
(0.01416685947 5.698043499e-19 0.02042598624)
(0.01437491657 5.603468066e-19 0.02062081463)
(0.0145462052 5.492904647e-19 0.02080724124)
(0.0146830566 5.644644136e-19 0.02098308785)
(0.01478824775 5.614836287e-19 0.02114606358)
(0.01486499561 5.871007011e-19 0.02129373208)
(0.01491694811 5.361079204e-19 0.02142348435)
(0.0149481427 4.998159056e-19 0.02153246638)
(0.01496293303 4.94449112e-19 0.02161743863)
(0.01496588799 5.397541231e-19 0.02167483517)
(0.01496187331 2.904501714e-19 0.02169962442)
(0.01495567957 1.374166198e-18 0.02169166309)
(0.01494739938 -3.357048394e-18 0.02162029114)
(0.01494602005 -4.517069124e-18 0.02161021437)
(0.01490139642 -5.282106965e-18 0.02100645164)
(0.01470116491 -4.975897921e-18 0.02288349691)
(0.01337143744 -3.054460606e-18 0.01320778181)
(0.006033309505 -1.109943788e-18 0.0892257168)
(0.0008425959507 4.681494956e-19 0.01614846383)
(0.001444643715 1.038869368e-18 0.01613153895)
(0.00226279014 -1.978487019e-17 0.01615508409)
(0.003105595322 -4.824973376e-18 0.01620422556)
(0.003948107639 5.295053206e-19 0.01627463136)
(0.004781035516 8.760638055e-19 0.01636471217)
(0.005598807608 5.19581253e-19 0.01647339397)
(0.006397188803 2.345881212e-18 0.01659980448)
(0.007172575896 -1.25602506e-17 0.01674309098)
(0.007921750409 -1.157681297e-17 0.01690236148)
(0.008641782826 6.680227537e-18 0.01707665258)
(0.009329998249 2.193874112e-17 0.01726491056)
(0.009983969393 1.64779477e-17 0.01746597932)
(0.0106015233 6.431877741e-18 0.01767859268)
(0.01118075543 1.048022329e-18 0.01790136961)
(0.01172004781 -3.742166114e-20 0.01813281185)
(0.01221808939 2.740929113e-19 0.0183713034)
(0.01267389712 5.074521977e-19 0.01861511174)
(0.0130868371 5.838426533e-19 0.01886239045)
(0.01345664481 5.724628631e-19 0.019111183)
(0.01378344386 5.742759769e-19 0.01935942737)
(0.01406776264 5.537470566e-19 0.01960496079)
(0.01431054828 5.487968503e-19 0.01984552419)
(0.01451317732 5.736111449e-19 0.02007876515)
(0.01467746222 5.661710289e-19 0.02030223919)
(0.01480565128 5.72094181e-19 0.0205134058)
(0.01490042146 5.72490374e-19 0.02070961449)
(0.01496485999 5.852785029e-19 0.02088808018)
(0.01500244411 5.564781727e-19 0.02104585313)
(0.01501698854 5.357851105e-19 0.02117979422)
(0.01501254569 5.084054549e-19 0.02128644382)
(0.01499329963 5.140376272e-19 0.02136209503)
(0.01496347878 2.930602115e-19 0.02140149589)
(0.0149276632 1.405348332e-18 0.02140447084)
(0.01488556383 -3.356135138e-18 0.02134666306)
(0.01485142801 -4.614406017e-18 0.0213312598)
(0.014772807 -5.349766869e-18 0.02080780789)
(0.01468879049 -5.033229721e-18 0.02240925711)
(0.01313430589 -2.955530148e-18 0.01389825519)
(0.005744821 -9.518402492e-19 0.0990332137)
(0.0008555542685 4.532849028e-19 0.01494927615)
(0.001467094896 1.025026112e-18 0.01493391066)
(0.002298053901 -1.97663555e-17 0.01496276796)
(0.003153938031 -4.862651096e-18 0.01502046246)
(0.004009425243 5.297979306e-19 0.0151025351)
(0.004855083462 8.804655802e-19 0.01520732891)
(0.005685248465 5.259154605e-19 0.01533367977)
(0.006495603441 2.35400459e-18 0.01548061943)
(0.00728246488 -1.250796102e-17 0.01564718672)
(0.008042532456 -1.162079137e-17 0.01583236688)
(0.008772792619 6.564448681e-18 0.01603505794)
(0.009470484316 2.191119882e-17 0.01625405079)
(0.01013309239 1.653640644e-17 0.01648801614)
(0.01075835488 6.488902352e-18 0.01673549592)
(0.01134427778 1.058304871e-18 0.01699489795)
(0.01188915398 -4.053317838e-20 0.01726449318)
(0.01239158438 2.690399362e-19 0.01754241527)
(0.01285049972 5.234643732e-19 0.01782666211)
(0.01326518237 5.882389661e-19 0.01811509932)
(0.01363528699 5.750655219e-19 0.01840546519)
(0.01396085941 5.870124882e-19 0.01869537691)
(0.01424235294 5.641493364e-19 0.01898233741)
(0.01448064142 5.671314606e-19 0.01926374232)
(0.01467702817 5.723243195e-19 0.01953688596)
(0.01483325029 5.639543233e-19 0.01979896627)
(0.01495147528 5.751871401e-19 0.0200470877)
(0.01503428781 5.74118689e-19 0.02027825302)
(0.01508466577 5.832860319e-19 0.02048934897)
(0.01510594424 5.563622804e-19 0.02067711668)
(0.0151017649 4.939294796e-19 0.02083816092)
(0.01507598277 5.095435949e-19 0.0209688483)
(0.01503256131 4.920023026e-19 0.02106536196)
(0.01497529661 3.169717614e-19 0.02112251813)
(0.01490853365 1.416299658e-18 0.02113943708)
(0.01483233456 -3.220264203e-18 0.02109841843)
(0.01476408231 -4.729263456e-18 0.02107516937)
(0.01464023313 -5.454152595e-18 0.02064371855)
(0.01440346471 -4.975954812e-18 0.02180387016)
(0.01252034192 -2.786657166e-18 0.01493714766)
(0.0053419328 -8.677857088e-19 0.1085147148)
(0.0008704317599 4.397533701e-19 0.01373023435)
(0.001492866546 1.029132345e-18 0.01371636944)
(0.002338559194 -1.975040593e-17 0.01375066323)
(0.003209520293 -4.887899012e-18 0.01381712358)
(0.004079989441 5.331581327e-19 0.01391113692)
(0.004940361821 8.878676593e-19 0.01403097657)
(0.00578485954 5.250891007e-19 0.01417539207)
(0.006609068744 2.367484102e-18 0.01434332273)
(0.007409212718 -1.244404096e-17 0.01453370339)
(0.008181896875 -1.164480873e-17 0.01474540034)
(0.008924011184 6.410675541e-18 0.01497717632)
(0.009632695738 2.184675753e-17 0.01522766955)
(0.01030533448 1.659282151e-17 0.01549537956)
(0.01093956312 6.534153707e-18 0.0157786578)
(0.01153328473 1.067647899e-18 0.01607570156)
(0.01208468958 -4.385031349e-20 0.01638455093)
(0.01259227724 2.705635522e-19 0.01670308836)
(0.01305487948 5.42281696e-19 0.01702904064)
(0.01347168286 5.918359156e-19 0.01735998328)
(0.01384225015 5.834989737e-19 0.01769334678)
(0.01416653967 6.083618904e-19 0.01802642482)
(0.01444492164 5.919756788e-19 0.01835638349)
(0.0146781908 5.896460798e-19 0.0186802712)
(0.01486757421 5.894491344e-19 0.01899502831)
(0.01501473392 5.603166767e-19 0.01929749606)
(0.01512176217 5.778304773e-19 0.01958442646)
(0.01519116459 5.767564526e-19 0.01985248312)
(0.01522583305 5.920236963e-19 0.02009823393)
(0.01522899933 5.572218887e-19 0.02031813632)
(0.015204188 5.21605284e-19 0.02050854552)
(0.01515513527 4.867005415e-19 0.0206656671)
(0.01508567254 5.694823403e-19 0.02078558907)
(0.01499935556 3.849456467e-19 0.02086340927)
(0.01490039185 1.497784928e-18 0.02089713804)
(0.01478901006 -3.186098393e-18 0.02087553664)
(0.01468332707 -4.833022269e-18 0.02084471379)
(0.01451070458 -5.533053281e-18 0.02052131795)
(0.01411921458 -4.843617259e-18 0.02120708908)
(0.01200951204 -2.649284812e-18 0.01624353766)
(0.005039594624 -7.76742465e-19 0.1176807109)
(0.0008872911048 4.261199193e-19 0.01248857511)
(0.001522061581 1.022264629e-18 0.01247613344)
(0.002384456012 -1.972813288e-17 0.01251597591)
(0.003272533397 -4.909286958e-18 0.01259141709)
(0.00416003123 5.336149575e-19 0.01269766342)
(0.005037143217 8.93245605e-19 0.01283291468)
(0.005897958136 5.256085446e-19 0.0129958365)
(0.006737949799 2.376431809e-18 0.01318527726)
(0.007553235181 -1.237504071e-17 0.01340007203)
(0.008340312637 -1.169270649e-17 0.0136389721)
(0.009095962801 6.291651006e-18 0.0139006084)
(0.009817213783 2.177081794e-17 0.01418346942)
(0.01050133514 1.665665161e-17 0.01448588594)
(0.01114584647 6.597161563e-18 0.01480602048)
(0.01174853392 1.090293318e-18 0.01514186062)
(0.01230747119 -3.305688106e-20 0.01549121545)
(0.01282104285 2.746620041e-19 0.01585171513)
(0.01328796845 5.448104217e-19 0.01622081341)
(0.01370732643 5.968777691e-19 0.01659579286)
(0.01407857655 6.003781244e-19 0.01697377275)
(0.01440158007 6.157073123e-19 0.01735171926)
(0.01467661661 6.012303169e-19 0.0177264575)
(0.01490439691 6.020677298e-19 0.01809468479)
(0.01508607018 5.832927869e-19 0.01845298433)
(0.01522322575 5.628157527e-19 0.01879783851)
(0.01531788797 5.955033496e-19 0.01912564488)
(0.01537249863 5.952342637e-19 0.01943272875)
(0.01538988601 5.971787375e-19 0.01971534204)
(0.0153732229 5.542480054e-19 0.01996966414)
(0.01532597063 5.292475045e-19 0.02019180622)
(0.0152518045 5.107465111e-19 0.02037780648)
(0.01515450381 5.777667284e-19 0.02052366972)
(0.01503755445 4.065227845e-19 0.02062485464)
(0.01490493582 1.48501372e-18 0.02067821256)
(0.01475712274 -3.183341756e-18 0.02067850362)
(0.01461113679 -4.870654157e-18 0.02064323076)
(0.01439232896 -5.562156288e-18 0.02043784897)
(0.01387560725 -4.790851505e-18 0.02066850736)
(0.01156217488 -2.521065338e-18 0.01771150537)
(0.004768011632 -7.091280009e-19 0.1265585126)
(0.0009061919046 4.123880802e-19 0.0112214461)
(0.001554781256 1.029706438e-18 0.01121033844)
(0.002435897964 -1.969999001e-17 0.01125583839)
(0.003343180624 -4.946375296e-18 0.011340483)
(0.004249802529 5.184665215e-19 0.01145927467)
(0.005145729606 8.947255281e-19 0.01161033533)
(0.006024898714 5.287862465e-19 0.01179224971)
(0.006882656384 2.380438157e-18 0.01200377481)
(0.007715000247 -1.230829154e-17 0.01224365057)
(0.008518308504 -1.172268637e-17 0.01251051729)
(0.009289239274 6.201531761e-18 0.01280287791)
(0.01002469514 2.168536307e-17 0.01311907458)
(0.01072181732 1.674688541e-17 0.013457272)
(0.01137799495 6.666281389e-18 0.01381544574)
(0.01199088271 1.114663135e-18 0.01419137456)
(0.01255842314 -4.100622941e-20 0.01458263638)
(0.01307887148 2.873320351e-19 0.01498660783)
(0.01355082141 5.355047414e-19 0.01540046711)
(0.01397323043 6.434007683e-19 0.01582120032)
(0.01434544391 6.159756688e-19 0.01624561097)
(0.01466721642 6.043306758e-19 0.0166703324)
(0.01493872971 5.987026434e-19 0.01709184282)
(0.01516060604 6.050981222e-19 0.01750648225)
(0.01533391602 5.353224291e-19 0.01791047063)
(0.01546017987 5.737405611e-19 0.01829992601)
(0.01554136212 6.064540739e-19 0.0186708857)
(0.01557985577 6.033444098e-19 0.01901933036)
(0.01557845076 6.001084695e-19 0.01934119287)
(0.01554029349 5.630023837e-19 0.01963236491)
(0.01546883232 5.482154984e-19 0.01988871489)
(0.01536773753 5.414331082e-19 0.0201061022)
(0.01524081224 5.776744696e-19 0.0202804343)
(0.01509165672 4.601423502e-19 0.02040749567)
(0.01492410837 1.438991049e-18 0.02048328204)
(0.01473918966 -3.074086852e-18 0.02050748194)
(0.01455397024 -4.918915166e-18 0.02047126633)
(0.01429281249 -5.563047831e-18 0.02038800006)
(0.01366059149 -4.764891671e-18 0.02017381738)
(0.01116170053 -2.392221375e-18 0.01931439436)
(0.004525021338 -6.435884967e-19 0.1351791429)
(0.0009271941768 4.541165116e-19 0.009925908462)
(0.001591129284 1.050778376e-18 0.009916036847)
(0.002493045815 -1.96818652e-17 0.009967304297)
(0.003421679283 -4.978198257e-18 0.01006138573)
(0.004349576768 5.214615594e-19 0.0101930563)
(0.005266451741 8.903185845e-19 0.01036035521)
(0.00616607189 5.09715339e-19 0.01056179129)
(0.007043641934 2.377503049e-18 0.01079602791)
(0.007895027103 -1.221363915e-17 0.0110617154)
(0.008716472115 -1.177605348e-17 0.01135738732)
(0.009504499151 5.982661533e-18 0.01168142287)
(0.01025587134 2.160466831e-17 0.01203202172)
(0.01096758707 1.681582649e-17 0.01240718568)
(0.01163689004 6.735495058e-18 0.01280470562)
(0.01226128823 1.11774591e-18 0.01322215263)
(0.01283857771 -6.980345412e-20 0.01365687336)
(0.01336686934 2.570048618e-19 0.01410598934)
(0.01384461647 5.119685406e-19 0.01456640026)
(0.01427064231 5.982662882e-19 0.01503479138)
(0.01464416585 6.002205299e-19 0.01550764469)
(0.01496482507 6.22946546e-19 0.01598125384)
(0.01523269634 5.989973928e-19 0.01645174227)
(0.0154483091 5.924819631e-19 0.01691508406)
(0.01561265469 5.909435482e-19 0.01736712667)
(0.01572718821 5.900896616e-19 0.01780361468)
(0.01579382276 5.955529405e-19 0.01822021613)
(0.01581491642 5.86250628e-19 0.01861255465)
(0.0157932442 5.971949255e-19 0.01897623262)
(0.01573195575 5.535468914e-19 0.01930684142)
(0.01563452593 5.18883419e-19 0.01959999185)
(0.0155046718 5.050008839e-19 0.01985135568)
(0.01534627746 5.58942556e-19 0.0200567046)
(0.01516309784 4.006974295e-19 0.0202120717)
(0.01495923322 1.483114901e-18 0.02031276165)
(0.01473673295 -3.138063198e-18 0.02036224989)
(0.01451135078 -4.94063016e-18 0.02032832015)
(0.01421104033 -5.668647867e-18 0.02036686749)
(0.01348117372 -4.686001218e-18 0.0197144213)
(0.01080410027 -2.297710237e-18 0.02105048353)
(0.004300207618 -5.448153626e-19 0.1435655477)
(0.0009503601045 4.412551283e-19 0.008598934782)
(0.001631213968 1.042343725e-18 0.008590194129)
(0.002556069257 -1.965714618e-17 0.008647342702)
(0.003508262102 -5.003014847e-18 0.008751106195)
(0.00445964965 5.141398204e-19 0.008896011629)
(0.005399668284 8.874485652e-19 0.009080008083)
(0.006321903083 5.039696833e-19 0.009301534716)
(0.007221402566 2.382879146e-18 0.009559160876)
(0.008093885085 -1.212354512e-17 0.009851452267)
(0.008935448984 -1.182354049e-17 0.01017684049)
(0.009742466885 5.825580367e-18 0.01053358586)
(0.01051154811 2.156319394e-17 0.01091975009)
(0.01123953312 1.691410497e-17 0.01133317588)
(0.01192350457 6.821737968e-18 0.0117714721)
(0.01256080762 1.145053238e-18 0.01223200362)
(0.01314907569 -7.876673983e-20 0.01271188575)
(0.01368625929 2.490947703e-19 0.01320798316)
(0.01417065608 5.557889975e-19 0.01371691357)
(0.0146009407 6.040087926e-19 0.01423505608)
(0.0149761931 5.964949992e-19 0.01475856422)
(0.01529592399 6.163235221e-19 0.01528338339)
(0.01556009639 6.029928871e-19 0.01580527229)
(0.01576914215 5.974095355e-19 0.01631982786)
(0.01592397237 6.270335012e-19 0.01682251283)
(0.01602598029 6.145244664e-19 0.01730868556)
(0.01607703599 6.107264313e-19 0.01777363209)
(0.01607947537 5.904292363e-19 0.01821260276)
(0.01603607825 5.935042772e-19 0.01862084961)
(0.01595002653 5.653870762e-19 0.01899364761)
(0.01582485087 5.272951218e-19 0.01932632939)
(0.01566436047 5.217861236e-19 0.01961435736)
(0.01547258849 5.909538835e-19 0.01985332095)
(0.01525349594 4.364278259e-19 0.02003944887)
(0.01501151064 1.509361009e-18 0.02016724251)
(0.01474927714 -3.134786728e-18 0.02024336733)
(0.01448249631 -4.957150807e-18 0.0202147664)
(0.01414677263 -5.710113686e-18 0.02036886531)
(0.01333631458 -4.689913972e-18 0.01926978876)
(0.01048694687 -2.208728285e-18 0.0229296686)
(0.004091900638 -4.942096004e-19 0.151736103)
(0.0009757549439 4.400592699e-19 0.007237405215)
(0.001675149311 1.051517297e-18 0.00722968436)
(0.00262514766 -1.962486113e-17 0.007292832473)
(0.003603174859 -5.049105372e-18 0.007406535583)
(0.004580336107 5.073721703e-19 0.007565053514)
(0.005545766605 8.923382241e-19 0.007766236256)
(0.006492853527 5.041812356e-19 0.00800845925)
(0.007416476082 2.395293063e-18 0.008290201269)
(0.008312192485 -1.203311429e-17 0.008609947308)
(0.009175941381 -1.187638419e-17 0.008966032584)
(0.01000393189 5.70514704e-18 0.009356604279)
(0.01079260468 2.146583978e-17 0.009779591455)
(0.0115386266 1.702315231e-17 0.01023268218)
(0.01223890274 6.948060495e-18 0.01071330663)
(0.01289059843 1.178027514e-18 0.01121862529)
(0.01349116718 -7.96998575e-20 0.01174552216)
(0.01403838205 2.474071542e-19 0.0122906032)
(0.01453036852 5.476353911e-19 0.01285020007)
(0.01496563729 5.660367211e-19 0.0134203796)
(0.0153431155 5.539043779e-19 0.01399695853)
(0.01566217503 6.041585642e-19 0.01457552373)
(0.01592265668 6.010159336e-19 0.01515145703)
(0.01612488905 5.851569753e-19 0.01571996442)
(0.01626970105 6.721596925e-19 0.01627610868)
(0.01635842625 6.406321256e-19 0.01681484577)
(0.01639289931 6.122139682e-19 0.01733106259)
(0.01637544616 6.014357301e-19 0.0178196172)
(0.01630886705 5.61974109e-19 0.01827538623)
(0.01619639958 5.901188923e-19 0.01869330476)
(0.01604166534 5.728565184e-19 0.01906840391)
(0.0158486049 5.663490144e-19 0.01939590157)
(0.01562144416 6.087050637e-19 0.0196711542)
(0.01536442763 4.961736848e-19 0.01989052358)
(0.01508233098 1.532994844e-18 0.02004763318)
(0.01477783614 -3.085479701e-18 0.02015242613)
(0.0144674443 -5.016934229e-18 0.02013081051)
(0.01409362441 -5.74242909e-18 0.02039259168)
(0.0131944249 -4.731506764e-18 0.01883580255)
(0.01018589436 -2.034856107e-18 0.02494278765)
(0.003900768539 -4.28600556e-19 0.1597081281)
(0.001003447467 4.401690742e-19 0.005838102649)
(0.001723055599 1.07295099e-18 0.0058312852)
(0.002700470828 -1.957765401e-17 0.005900556677)
(0.003706679282 -5.078784054e-18 0.006024469701)
(0.00471197224 5.005735619e-19 0.006196996871)
(0.005705160286 8.933544062e-19 0.006415881968)
(0.006679417223 5.026948367e-19 0.006679442469)
(0.007629440343 2.411852361e-18 0.006986071524)
(0.008550615096 -1.193596774e-17 0.00733417812)
(0.009438707019 -1.191152071e-17 0.007722007549)
(0.01028974745 5.460260679e-18 0.008147600555)
(0.01109999304 2.138789125e-17 0.00860875985)
(0.01186592057 1.714490903e-17 0.009103024261)
(0.01258424015 7.061857903e-18 0.009627649326)
(0.01325191914 1.227944013e-18 0.01017959346)
(0.01386621263 -6.552139602e-20 0.01075550967)
(0.01442469776 2.606764109e-19 0.01135174314)
(0.01492530996 5.514292053e-19 0.01196433502)
(0.01536637922 6.260395151e-19 0.01258903272)
(0.01574666485 6.302108029e-19 0.01322130657)
(0.01606538713 6.415726939e-19 0.01385637283)
(0.01632225457 6.269486061e-19 0.01448922215)
(0.01651748568 6.271381086e-19 0.01511465319)
(0.01665182357 6.264853719e-19 0.01572731087)
(0.01672654295 6.142764689e-19 0.01632172889)
(0.0167434493 6.245765712e-19 0.01689237329)
(0.01670487023 6.21444585e-19 0.01743368781)
(0.01661363995 6.345497878e-19 0.01794014703)
(0.01647307106 5.946908734e-19 0.018406314)
(0.0162869077 5.843638208e-19 0.01882688649)
(0.01605926236 5.699961842e-19 0.01919679946)
(0.01579459152 6.362809057e-19 0.01951112476)
(0.01549743423 4.644429261e-19 0.01976629206)
(0.01517304873 1.589329345e-18 0.01995493049)
(0.01482452979 -3.146822454e-18 0.02009061004)
(0.01446778056 -5.037381593e-18 0.02007799343)
(0.01404915826 -5.81505422e-18 0.02044233269)
(0.01303799145 -4.650355306e-18 0.01843280297)
(0.009882693434 -2.031674562e-18 0.0270557956)
(0.003723262067 -3.800563305e-19 0.167499563)
(0.001033510124 4.402345198e-19 0.004397707404)
(0.00177505955 1.087246299e-18 0.004391672691)
(0.002782239001 -1.953603205e-17 0.004467196888)
(0.003819052497 -5.134617011e-18 0.004601602085)
(0.004854914483 4.880399262e-19 0.004788552592)
(0.005878288039 9.020191598e-19 0.005025680745)
(0.006882119512 5.089751948e-19 0.005311252087)
(0.007860911694 2.424077062e-18 0.00564358067)
(0.008809864611 -1.182660864e-17 0.006021004949)
(0.009724557567 -1.196322035e-17 0.006441688053)
(0.01060082949 5.315457152e-18 0.006903572198)
(0.01143473704 2.126835411e-17 0.007404341195)
(0.01222254964 1.725523957e-17 0.007941391113)
(0.01296076393 7.207656724e-18 0.008511807848)
(0.01364612988 1.26473688e-18 0.009112350775)
(0.01427568416 -6.576929812e-20 0.009739442518)
(0.01484678795 2.54805338e-19 0.01038916548)
(0.01535716707 5.624416398e-19 0.01105726529)
(0.01580495237 6.371591198e-19 0.01173916194)
(0.01618871864 5.661226126e-19 0.0124299683)
(0.01650752031 6.198209377e-19 0.01312451608)
(0.01676092227 6.279815216e-19 0.01381738822)
(0.01694902456 6.203948972e-19 0.01450295733)
(0.01707247951 6.181428867e-19 0.01517542984)
(0.01713250204 6.475919634e-19 0.01582889372)
(0.01713087249 6.377552546e-19 0.0164573683)
(0.0170699298 6.30065152e-19 0.01705485663)
(0.01695255654 6.15003425e-19 0.01761540329)