/*--------------------------------*- C++ -*----------------------------------*\
| =========                 |                                                 |
| \\      /  F ield         | OpenFOAM: The Open Source CFD Toolbox           |
|  \\    /   O peration     | Version:  v1912                                 |
|   \\  /    A nd           | Website:  www.openfoam.com                      |
|    \\/     M anipulation  |                                                 |
\*---------------------------------------------------------------------------*/
FoamFile
{
    version     2.0;
    format      ascii;
    class       volVectorField;
    location    "0.9";
    object      U.gas;
}
// * * * * * * * * * * * * * * * * * * * * * * * * * * * * * * * * * * * * * //

dimensions      [0 1 -1 0 0 0 0];


internalField   nonuniform List<vector> 
4800
(
(0.0007505134397 4.815695467e-19 0.01205840845)
(0.001302000052 9.254798573e-19 0.01204809221)
(0.002052428952 -1.873399161e-17 0.01204829927)
(0.0028251541 -4.224596245e-18 0.01205162837)
(0.003596755593 5.558110008e-19 0.01205679438)
(0.004358747435 8.031212392e-19 0.01206352941)
(0.005106055029 4.870747346e-19 0.01207169612)
(0.005834817791 2.160920385e-18 0.01208121602)
(0.006541749661 -1.235845752e-17 0.01209201165)
(0.007223931678 -1.052754615e-17 0.01210400704)
(0.007878724472 7.255668433e-18 0.01211712469)
(0.008503737143 2.109089349e-17 0.0121312812)
(0.009096823494 1.479076839e-17 0.01214638588)
(0.009656090156 5.364962361e-18 0.01216233999)
(0.01017991074 7.718086513e-19 0.01217903635)
(0.01066694321 1.072973409e-20 0.01219635917)
(0.01111614884 3.243640195e-19 0.01221418394)
(0.01152681199 5.511268287e-19 0.01223237758)
(0.01189855993 5.84729956e-19 0.0122507985)
(0.01223138257 5.496149483e-19 0.01226929686)
(0.01252565181 5.468180113e-19 0.01228771468)
(0.0127821408 5.48283107e-19 0.01230588597)
(0.01300204331 5.463090317e-19 0.01232363657)
(0.0131869941 5.294629258e-19 0.01234078369)
(0.01333909195 5.507947401e-19 0.01235713455)
(0.01346093031 5.328016047e-19 0.01237248258)
(0.01355563475 5.205736745e-19 0.01238660616)
(0.01362691377 5.638184383e-19 0.01239926056)
(0.01367913691 5.723135868e-19 0.01241016671)
(0.01371745074 5.650855873e-19 0.01241899549)
(0.01374793806 5.482709883e-19 0.01242535033)
(0.01377771424 5.327181745e-19 0.01242882499)
(0.01381613074 3.386204707e-19 0.01242821461)
(0.01387344551 1.406128696e-18 0.01242391074)
(0.01397590628 -3.414355277e-18 0.01240472109)
(0.01410983554 -4.632716138e-18 0.01240754702)
(0.01447713938 -4.895317688e-18 0.01225369166)
(0.01438528244 -4.32014984e-18 0.01270514352)
(0.01823840182 -3.433776983e-18 0.009095215001)
(0.01103782675 -1.308287488e-18 0.01990271768)
(0.0008039642245 5.088454672e-19 0.02269115963)
(0.00138019661 1.005248614e-18 0.02266950097)
(0.00216489881 -1.986163089e-17 0.02267116648)
(0.002974447904 -4.770341102e-18 0.02268138191)
(0.003783960274 5.395313969e-19 0.02269702288)
(0.004584306854 8.8061641e-19 0.02271734168)
(0.005370128323 5.286258774e-19 0.022741959)
(0.006137402598 2.324984283e-18 0.02277064222)
(0.006882756953 -1.272382335e-17 0.02280315513)
(0.007603215534 -1.149840866e-17 0.02283927641)
(0.008296089045 6.859700679e-18 0.02287877531)
(0.008958943935 2.19873156e-17 0.02292140251)
(0.009589596095 1.630781924e-17 0.02296688635)
(0.01018611738 6.355603196e-18 0.02301493078)
(0.01074684896 1.043451333e-18 0.02306521424)
(0.01127041833 -4.611572839e-21 0.02311738902)
(0.01175575833 2.98677686e-19 0.02317108112)
(0.01220212712 5.49276345e-19 0.02322589045)
(0.0126091284 5.98635391e-19 0.02328139128)
(0.01297673165 5.6557165e-19 0.02333713273)
(0.01330529211 5.773209921e-19 0.02339263933)
(0.0135955705 5.741284193e-19 0.02344741124)
(0.01384875306 5.914751952e-19 0.02350092395)
(0.01406647232 5.648388858e-19 0.02355262685)
(0.01425083037 5.402568714e-19 0.02360193937)
(0.01440442467 5.794655387e-19 0.02364824266)
(0.01453038534 6.043071053e-19 0.02369086998)
(0.01463242435 5.784586978e-19 0.02372908911)
(0.01471490134 5.658451656e-19 0.02376206949)
(0.01478292474 5.522748332e-19 0.02378883638)
(0.01484249772 5.672529712e-19 0.02380821715)
(0.01490063421 5.885809688e-19 0.02381899401)
(0.0149658865 3.308521225e-19 0.0238180145)
(0.01504833653 1.412514252e-18 0.02380562436)
(0.01516554049 -3.166920465e-18 0.02375474369)
(0.01531668598 -4.453089184e-18 0.02375561221)
(0.01567503829 -5.076567899e-18 0.02331822086)
(0.01575779462 -4.899187854e-18 0.0245259503)
(0.01674075988 -3.723344616e-18 0.01610326384)
(0.008825515202 -1.606860564e-18 0.04560132771)
(0.0008103273587 4.677931775e-19 0.02074450638)
(0.001389414194 1.009159773e-18 0.02072206965)
(0.002177365267 -1.985465776e-17 0.02072685074)
(0.002990004569 -4.787291019e-18 0.020744322)
(0.003802749611 5.487258637e-19 0.02077062905)
(0.004606435988 8.777963988e-19 0.02080467632)
(0.005395649947 5.245101758e-19 0.02084588919)
(0.006166346104 2.328922772e-18 0.02089387864)
(0.006915121357 -1.269114675e-17 0.02094826647)
(0.007638957344 -1.151839446e-17 0.02100868934)
(0.008335134151 6.826754881e-18 0.02107476456)
(0.009001192039 2.198518838e-17 0.02114607757)
(0.009634922965 1.638113656e-17 0.02122217621)
(0.01023437617 6.349764971e-18 0.02130256732)
(0.01079787107 1.0552688e-18 0.02138671485)
(0.01132401406 -1.389107093e-20 0.02147403888)
(0.01181171738 3.077368353e-19 0.02156391535)
(0.01226021897 5.383494603e-19 0.02165567638)
(0.01266910262 5.840546563e-19 0.021748611)
(0.013038318 5.79889534e-19 0.02184196608)
(0.0133682003 6.227121158e-19 0.02193494727)
(0.01365948952 5.99279151e-19 0.0220267195)
(0.01391334943 5.790932197e-19 0.02211640667)
(0.01413138693 5.289094055e-19 0.02220308964)
(0.01431567221 5.375291057e-19 0.02228580081)
(0.01446876015 5.635672484e-19 0.0223635146)
(0.01459371966 5.637331598e-19 0.0224351259)
(0.01469417047 5.737989645e-19 0.02249943064)
(0.01477432666 5.701003251e-19 0.02255507789)
(0.0148390696 5.472728886e-19 0.02260049421)
(0.01489406851 5.226367608e-19 0.02263379328)
(0.01494591422 4.902117235e-19 0.02265296776)
(0.01500198646 3.837967144e-19 0.02265386836)
(0.01507067074 1.389250512e-18 0.02263587722)
(0.01516449948 -3.059089641e-18 0.02256485672)
(0.01528371934 -4.457297217e-18 0.02255776577)
(0.01550468989 -5.051895307e-18 0.02193097613)
(0.01550320383 -5.05500547e-18 0.0236155287)
(0.01527021064 -3.431672356e-18 0.01358928718)
(0.007499048322 -1.522958175e-18 0.05721922114)
(0.0008168106198 4.669312578e-19 0.01964398576)
(0.001400165659 9.950858573e-19 0.01962240808)
(0.002193467508 -1.984325684e-17 0.01963127139)
(0.003011272759 -4.798352943e-18 0.01965630544)
(0.003829107316 5.388906215e-19 0.01969342027)
(0.004637821416 8.763223616e-19 0.01974130391)
(0.005431972588 5.230808129e-19 0.01979921718)
(0.006207470442 2.330945762e-18 0.01986662255)
(0.006960867502 -1.266321433e-17 0.01994301797)
(0.007689106482 -1.152675658e-17 0.02002789846)
(0.008389426511 6.793536574e-18 0.02012072978)
(0.009059327467 2.200124077e-17 0.02022093267)
(0.009696561422 1.640977707e-17 0.02032787476)
(0.01029913821 6.397393671e-18 0.02044086601)
(0.01086533836 1.052437092e-18 0.02055915593)
(0.01139372997 -1.361530599e-20 0.02068193231)
(0.01188318774 2.917406364e-19 0.02080832085)
(0.01233291292 5.260032894e-19 0.02093738562)
(0.01274245354 5.92072181e-19 0.02106813016)
(0.01311172433 5.822605642e-19 0.02119949892)
(0.01344102615 6.227888796e-19 0.02133037872)
(0.01373106454 5.860748306e-19 0.0214595999)
(0.01398296759 5.860699081e-19 0.02158593632)
(0.01419830309 5.660572452e-19 0.02170810352)
(0.01437909506 5.539176329e-19 0.02182475311)
(0.01452784161 5.690253903e-19 0.0219344619)
(0.01464753145 5.674300521e-19 0.02203570715)
(0.01474166667 5.885030838e-19 0.02212684104)
(0.01481428522 5.632354065e-19 0.02220604395)
(0.01486998633 5.487218788e-19 0.02227122586)
(0.01491398773 5.277196969e-19 0.02231990473)
(0.0149522968 4.973561081e-19 0.0223493354)
(0.01499135813 2.702949836e-19 0.02235508242)
(0.01503752602 1.404731045e-18 0.02233599237)
(0.01509755408 -3.165113387e-18 0.02225528632)
(0.01517080499 -4.531797562e-18 0.02224535656)
(0.01525942056 -5.15416612e-18 0.02155477511)
(0.01513304259 -5.036148221e-18 0.02346835286)
(0.01439441959 -3.281588383e-18 0.01298843211)
(0.006832964199 -1.385240704e-18 0.06845916141)
(0.0008246337274 4.670171181e-19 0.01848253894)
(0.001413542395 1.021407798e-18 0.01846232511)
(0.002214116526 -1.983065526e-17 0.01847583011)
(0.003039146411 -4.819593989e-18 0.01850873844)
(0.00386408568 5.377901024e-19 0.01855686358)
(0.004679767862 8.786046887e-19 0.01861876259)
(0.005480716161 5.195842712e-19 0.01869356213)
(0.006262794406 2.339727064e-18 0.01878059757)
(0.007022505746 -1.262464832e-17 0.0188792424)
(0.00775674387 -1.154957869e-17 0.01898885566)
(0.008462697365 6.69703767e-18 0.01910875401)
(0.009137814776 2.198547543e-17 0.01923819482)
(0.009779796588 1.644551945e-17 0.01937636644)
(0.01038660101 6.410216218e-18 0.01952238237)
(0.01095645718 1.058446973e-18 0.01967527794)
(0.01148788226 -2.210612068e-20 0.01983400851)
(0.01197970083 2.842950291e-19 0.01999744921)
(0.01243106502 5.487129209e-19 0.02016439552)
(0.01284147492 5.971186394e-19 0.02033356485)
(0.01321079847 5.79288224e-19 0.02050359864)
(0.01353929055 5.822748592e-19 0.0206730646)
(0.01382761084 5.556189064e-19 0.02084045876)
(0.01407684027 5.550130441e-19 0.0210042064)
(0.01428849593 5.635187315e-19 0.02116266112)
(0.01446454389 5.53692197e-19 0.0213141005)
(0.01460741006 5.621866723e-19 0.02145671468)
(0.01471998813 5.599489534e-19 0.02158858517)
(0.01480564843 5.837219718e-19 0.0217076514)
(0.01486824085 5.57232101e-19 0.0218116762)
(0.01491207898 5.249840026e-19 0.02189814611)
(0.01494192122 4.754306962e-19 0.02196413191)
(0.01496298295 5.358493617e-19 0.02200634336)
(0.01498097054 2.929563281e-19 0.02202010276)
(0.01500109608 1.42947995e-18 0.02200469934)
(0.01502544591 -3.288867815e-18 0.02192472592)
(0.01505646385 -4.556959088e-18 0.02191591118)
(0.01505876643 -5.217994815e-18 0.02124718581)
(0.01481391612 -4.970390404e-18 0.02321021072)
(0.01372334284 -3.193724304e-18 0.01288729138)
(0.006358017793 -1.242120739e-18 0.07905940696)
(0.0008340547625 4.552150098e-19 0.01731175913)
(0.001429814164 1.022655081e-18 0.01729309243)
(0.002239523416 -1.981627179e-17 0.01731157165)
(0.003073764617 -4.828668937e-18 0.01735262615)
(0.003907791027 5.260196015e-19 0.01741198895)
(0.004732374595 8.703453474e-19 0.01748812886)
(0.005541987613 5.233069172e-19 0.01758006043)
(0.006332439375 2.34809937e-18 0.01768700627)
(0.007100175248 -1.25890761e-17 0.01780821986)
(0.007842029561 -1.155839743e-17 0.01794292834)
(0.008555129781 6.64293379e-18 0.01809030218)
(0.00923686191 2.19243824e-17 0.01824943721)
(0.009884863022 1.645035502e-17 0.01841934366)
(0.01049702749 6.450650983e-18 0.01859893934)
(0.01107152057 1.060781721e-18 0.01878704562)
(0.01160679603 -3.133117065e-20 0.01898238541)
(0.01210161584 2.766707734e-19 0.01918358278)
(0.01255507082 5.193759706e-19 0.01938916392)
(0.01296660126 5.90676706e-19 0.01959755921)
(0.01333601687 5.767101932e-19 0.01980710618)
(0.01366351561 5.883206693e-19 0.02001605286)
(0.0139497008 5.627984245e-19 0.02022256103)
(0.01419559616 5.702597762e-19 0.02042470874)
(0.0144026584 5.614361583e-19 0.02062049095)
(0.01457278648 5.505063758e-19 0.02080781769)
(0.01470832627 5.655676458e-19 0.02098450517)
(0.01481207032 5.626465027e-19 0.02114825786)
(0.01488725173 5.880648034e-19 0.02129663568)
(0.01493753499 5.375684688e-19 0.02142702614)
(0.01496697445 5.016339406e-19 0.02153657294)
(0.01497994032 4.9633834e-19 0.02162203383)
(0.01498101774 5.417791559e-19 0.02167984423)
(0.01497508705 2.931296504e-19 0.02170493086)
(0.0149669578 1.372946412e-18 0.02169722644)
(0.01495672307 -3.360257652e-18 0.02162589079)
(0.01495339562 -4.505906738e-18 0.02161614691)
(0.01490676968 -5.277169565e-18 0.02101204246)
(0.01470573238 -4.981146112e-18 0.02288796594)
(0.01337556502 -3.06634106e-18 0.01321927597)
(0.006035033553 -1.123555284e-18 0.08922769761)
(0.000845235223 4.680859068e-19 0.01612606683)
(0.001449176902 1.043352988e-18 0.01610898554)
(0.002269886394 -1.979704023e-17 0.01613265263)
(0.003115307671 -4.84772588e-18 0.01618209263)
(0.003960398274 5.257541961e-19 0.0162529374)
(0.004795825772 8.783332406e-19 0.01634358372)
(0.005615990491 5.201873971e-19 0.01645294757)
(0.006416634183 2.352213742e-18 0.01658014832)
(0.007194133557 -1.254034725e-17 0.01672432476)
(0.007945252423 -1.160403324e-17 0.01688457601)
(0.008667045711 6.626919391e-18 0.01705992936)
(0.009356825096 2.192387048e-17 0.01724932124)
(0.01001215202 1.652519154e-17 0.01745158523)
(0.01063084445 6.479961207e-18 0.01766544434)
(0.01121099105 1.065590051e-18 0.01788950642)
(0.01175096937 -3.75835948e-20 0.01812226179)
(0.01224946617 2.713923932e-19 0.01836208292)
(0.01270549862 5.071730937e-19 0.01860722572)
(0.01311843533 5.84374791e-19 0.01885583235)
(0.01348801654 5.731031214e-19 0.01910593511)
(0.0138143728 5.749047554e-19 0.01935546125)
(0.01409804147 5.545960916e-19 0.01960223788)
(0.01433998052 5.497200112e-19 0.01984399654)
(0.01454157901 5.743238849e-19 0.0200783762)
(0.01470466334 5.669968325e-19 0.02030292478)
(0.01483149696 5.734334202e-19 0.02051509518)
(0.01492477292 5.733487565e-19 0.02071223138)
(0.0149875952 5.860654748e-19 0.02089154411)
(0.01502345794 5.575855886e-19 0.02105007972)
(0.01503619307 5.371297204e-19 0.02118469646)
(0.0150298705 5.100406346e-19 0.02129193196)
(0.01500869466 5.156492092e-19 0.02136807897)
(0.01497690448 2.940732144e-19 0.02140785)
(0.01493908557 1.405170139e-18 0.02141114311)
(0.01489494727 -3.355024469e-18 0.02135344086)
(0.01485879059 -4.606923655e-18 0.0213383751)
(0.01477809378 -5.345429004e-18 0.02081473614)
(0.01469183185 -5.038302167e-18 0.02241514544)
(0.01313555191 -2.968235766e-18 0.01390958628)
(0.005745123721 -9.642352401e-19 0.09903578484)
(0.0008582738491 4.53493408e-19 0.01492309286)
(0.001471768494 1.029637154e-18 0.01490756937)
(0.002305371606 -1.977799442e-17 0.01493657807)
(0.00316395401 -4.885847315e-18 0.01499462451)
(0.004022100037 5.259983788e-19 0.01507721098)
(0.004870335519 8.8288798e-19 0.01518266555)
(0.005702967039 5.264316153e-19 0.01530981283)
(0.006515653916 2.360313026e-18 0.01545767507)
(0.007304691887 -1.24871286e-17 0.01562528128)
(0.008066762311 -1.164810965e-17 0.01581160642)
(0.008798835546 6.50949143e-18 0.01601553768)
(0.009498136631 2.189542923e-17 0.01623585447)
(0.01016213873 1.658313559e-17 0.01647121543)
(0.01078857046 6.537507253e-18 0.01672014991)
(0.01137543079 1.076860898e-18 0.0169810527)
(0.01192100795 -4.063703482e-20 0.01725218142)
(0.0124239006 2.662150538e-19 0.0175316562)
(0.01288303972 5.237034516e-19 0.01781746142)
(0.01329771034 5.894291675e-19 0.01810744931)
(0.01366757211 5.764080961e-19 0.01839934509)
(0.01399267815 5.882535569e-19 0.01869075338)
(0.01427349117 5.656568889e-19 0.01897916528)
(0.01451089638 5.676005242e-19 0.01926196541)
(0.0147062102 5.727912703e-19 0.01953643808)
(0.01486118433 5.645641877e-19 0.01979977239)
(0.01497800208 5.762715104e-19 0.02004906514)
(0.0150592649 5.752796384e-19 0.02028131273)
(0.01510796823 5.84423753e-19 0.02049339701)
(0.01512746484 5.573017936e-19 0.02068205514)
(0.01512141439 4.960529975e-19 0.02084388854)
(0.01509369043 5.11043115e-19 0.02097526064)
(0.01504827532 4.937061514e-19 0.02107235182)
(0.01498897264 3.182308108e-19 0.02112996064)
(0.01492013936 1.416829573e-18 0.0211472632)
(0.01484183921 -3.215952467e-18 0.02110642599)
(0.01477149826 -4.722669437e-18 0.02108351033)
(0.014645536 -5.44977085e-18 0.02065201723)
(0.01440648483 -4.982542754e-18 0.0218112019)
(0.01252162952 -2.80028939e-18 0.01494904441)
(0.005342303352 -8.793572771e-19 0.1085178711)
(0.0008732442041 4.402590759e-19 0.01370014207)
(0.001497702428 1.033863763e-18 0.01368611554)
(0.002346132971 -1.976193502e-17 0.01372059078)
(0.003219887676 -4.911302544e-18 0.01378745831)
(0.004093109195 5.292833404e-19 0.01388206303)
(0.004956149108 8.901270103e-19 0.01400266209)
(0.005803199264 5.258256435e-19 0.01414799245)
(0.006629821064 2.373789082e-18 0.01431698273)
(0.00743221626 -1.242248105e-17 0.0145085566)
(0.008206971255 -1.167212855e-17 0.01472156863)
(0.008950959293 6.35399704e-18 0.01495476915)
(0.009661306006 2.182901508e-17 0.0152067832)
(0.01033538318 1.664019878e-17 0.01547609647)
(0.01097081674 6.583448559e-18 0.01576104592)
(0.01156550239 1.086900721e-18 0.0160598139)
(0.01211762559 -4.389096988e-20 0.01637042512)
(0.0126256836 2.675424277e-19 0.01669074646)
(0.01308850844 5.430761694e-19 0.01701848915)
(0.01350528949 5.926240458e-19 0.01735121323)
(0.0138755948 5.849337924e-19 0.01768633421)
(0.01419939037 6.095643667e-19 0.01802113124)
(0.01447705637 5.934124416e-19 0.01835275675)
(0.0147093995 5.91171993e-19 0.01867824649)
(0.01489766066 5.910471265e-19 0.01899452934)
(0.01504351726 5.617784122e-19 0.01929843639)
(0.01514907821 5.791869207e-19 0.01958671091)
(0.01521686679 5.782108431e-19 0.01985600931)
(0.01524979324 5.939336622e-19 0.02010289379)
(0.01525110818 5.579826387e-19 0.02032381765)
(0.01522435489 5.227936754e-19 0.02051513232)
(0.01517328811 4.882944332e-19 0.02067303985)
(0.01510175654 5.703324079e-19 0.02079362597)
(0.01501332598 3.865515336e-19 0.02087198365)
(0.01491221906 1.497311294e-18 0.02090615994)
(0.0147986698 -3.181486347e-18 0.0208848137)
(0.0146908461 -4.825902515e-18 0.02085431867)
(0.01451605657 -5.529833869e-18 0.02053101041)
(0.01412231269 -4.850975364e-18 0.02121599543)
(0.01201097901 -2.663342022e-18 0.01625604341)
(0.005040074082 -7.890098913e-19 0.1176844476)
(0.0008902095852 4.260676631e-19 0.01245443289)
(0.001527082662 1.026842451e-18 0.01244182365)
(0.002392322031 -1.973914544e-17 0.01248187813)
(0.003283301968 -4.93319134e-18 0.01255778371)
(0.004173659188 5.296813072e-19 0.01266470195)
(0.005053542021 8.955962023e-19 0.01280081513)
(0.005917007732 5.26147964e-19 0.01296477492)
(0.006759504366 2.382178604e-18 0.01315541776)
(0.00757712647 -1.235237345e-17 0.01337156618)
(0.008366352586 -1.171998124e-17 0.01361195823)
(0.009123945904 6.233227487e-18 0.01387521079)
(0.009846919435 2.175111259e-17 0.01415979745)
(0.01053253004 1.670596403e-17 0.01446403326)
(0.01117828707 6.648035483e-18 0.01478606432)
(0.01178196901 1.111099881e-18 0.0151238612)
(0.01234164449 -3.266504088e-20 0.01547521552)
(0.01285569565 2.729864533e-19 0.01583773975)
(0.01332284239 5.446885951e-19 0.01620886986)
(0.01374216609 5.97753317e-19 0.01658587084)
(0.01411313216 6.012606564e-19 0.01696584484)
(0.01443560998 6.175210803e-19 0.01734574154)
(0.01470988973 6.02236636e-19 0.01772237046)
(0.01493669484 6.031515555e-19 0.01809241449)
(0.01511718922 5.846780669e-19 0.01845244379)
(0.01525297851 5.640015797e-19 0.01879892922)
(0.01534610471 5.964339459e-19 0.01912825852)
(0.0153990283 5.968002544e-19 0.01943674883)
(0.01541459694 5.983048231e-19 0.01972064571)
(0.01539600328 5.548674604e-19 0.01997612392)
(0.01534672821 5.302143503e-19 0.02019929108)
(0.01527046565 5.125067522e-19 0.02038618188)
(0.01517101204 5.784159148e-19 0.02053280033)
(0.01505186635 4.078462363e-19 0.02063460676)
(0.01491702458 1.484958631e-18 0.02068847672)
(0.01476696318 -3.178386903e-18 0.02068909567)
(0.01461871697 -4.862676139e-18 0.02065416752)
(0.01439769318 -5.558551824e-18 0.0204489386)
(0.01387873808 -4.798074593e-18 0.02067904024)
(0.01156356916 -2.534573234e-18 0.01772474853)
(0.004768407623 -7.227685639e-19 0.1265627689)
(0.0009092302212 4.129091129e-19 0.01118309367)
(0.001560011535 1.034768746e-18 0.01117180994)
(0.00244409407 -1.971038299e-17 0.01121755295)
(0.003354402393 -4.970476325e-18 0.01130272136)
(0.004264004687 5.145921355e-19 0.01142226878)
(0.005162819475 8.968638425e-19 0.01157429823)
(0.006044750652 5.293373031e-19 0.01175737904)
(0.006905117803 2.386956984e-18 0.0119702549)
(0.007739895126 -1.22851662e-17 0.01221165174)
(0.008545440092 -1.174992058e-17 0.0124801951)
(0.009318392561 6.141991319e-18 0.01277437217)
(0.0100556393 2.166436917e-17 0.01309250836)
(0.01075430821 1.679566509e-17 0.01343275071)
(0.01141177768 6.718368373e-18 0.0137930563)
(0.01202569431 1.135894475e-18 0.01417118475)
(0.01259399534 -4.046514854e-20 0.01456469433)
(0.01311493347 2.848214757e-19 0.01497094169)
(0.01358710272 5.351835641e-19 0.01538708499)
(0.01400946378 6.449526051e-19 0.01581009049)
(0.01438136798 6.174205833e-19 0.0162367423)
(0.01470257859 6.060050538e-19 0.01666365516)
(0.01497328858 5.99484878e-19 0.01708728965)
(0.01519413379 6.059069392e-19 0.01750396952)
(0.0153662005 5.360030527e-19 0.01790989996)
(0.01549102635 5.746100249e-19 0.01830118608)
(0.0155705947 6.075884521e-19 0.01867385417)
(0.01560731845 6.041082866e-19 0.01902387582)
(0.01560400807 6.020730744e-19 0.01934717688)
(0.01556383073 5.649451529e-19 0.01963964391)
(0.01549025549 5.488303157e-19 0.01989714202)
(0.01538697194 5.427299997e-19 0.02011552801)
(0.01525780087 5.786860456e-19 0.02029070933)
(0.01510635798 4.618581017e-19 0.02041847558)
(0.01493650032 1.439626573e-18 0.02049483796)
(0.01474925532 -3.068886391e-18 0.02051943819)
(0.01456173955 -4.910605512e-18 0.02048358651)
(0.01429832575 -5.559376474e-18 0.0204004938)
(0.01366395595 -4.773123622e-18 0.02018594388)
(0.01116329294 -2.405883826e-18 0.01932852473)
(0.0045254402 -6.539829081e-19 0.1351838382)
(0.0009303667956 4.544237423e-19 0.009883165239)
(0.001596593937 1.055731361e-18 0.009873106242)
(0.002501611691 -1.969225863e-17 0.009924648375)
(0.003433408745 -5.002501877e-18 0.0100193154)
(0.004364422215 5.17003518e-19 0.01015182928)
(0.005284315909 8.92790955e-19 0.01032020876)
(0.006186822881 5.100271338e-19 0.01052294577)
(0.007067119577 2.383707299e-18 0.01075868881)
(0.007921046672 -1.218876113e-17 0.01102607276)
(0.008744827122 -1.180332122e-17 0.01132361477)
(0.009534963931 5.920245988e-18 0.01164967652)
(0.0102882036 2.158205871e-17 0.01200243901)
(0.0110015305 1.686596198e-17 0.0123798844)
(0.01167217703 6.790653938e-18 0.01277978288)
(0.01229764261 1.138562084e-18 0.01319968417)
(0.01287571773 -7.044714214e-20 0.01363691294)
(0.01340451056 2.535885861e-19 0.01408856836)
(0.01388247482 5.115181096e-19 0.0145515277)
(0.01430843711 5.998994229e-19 0.01502245392)
(0.0146816228 6.013911364e-19 0.01549780726)
(0.01500167914 6.239286614e-19 0.01597386046)
(0.01526869455 6.004010814e-19 0.01644671717)
(0.01548321302 5.940935924e-19 0.0169123332)
(0.0156462427 5.927094738e-19 0.0173665395)
(0.01575925739 5.909553711e-19 0.01780506615)
(0.0158241904 5.959757469e-19 0.01822356889)
(0.01584342109 5.874560583e-19 0.01861766138)
(0.01581974636 5.98429914e-19 0.01898293832)
(0.01575633788 5.54881544e-19 0.01931498569)
(0.01565669204 5.196679553e-19 0.01960941108)
(0.01552454644 5.065744544e-19 0.01986188487)
(0.01536380431 5.595464367e-19 0.02006817921)
(0.01517823765 4.019413253e-19 0.02022433443)
(0.01497196808 1.484252205e-18 0.02032566279)
(0.01474704937 -3.134474241e-18 0.02037562164)
(0.01451929985 -4.932692289e-18 0.02034203701)
(0.014216673 -5.666095801e-18 0.02038081437)
(0.01348460952 -4.695233665e-18 0.01972810857)
(0.01080561546 -2.311649084e-18 0.0210656559)
(0.004300523522 -5.561554253e-19 0.1435706003)
(0.0009536822246 4.410602339e-19 0.008551598742)
(0.001636939458 1.047191568e-18 0.008542656369)
(0.002565046619 -1.966664595e-17 0.008600111864)
(0.003520556527 -5.028209675e-18 0.008704525428)
(0.004475210951 5.096947777e-19 0.008850365906)
(0.005418394111 8.893774092e-19 0.009035560183)
(0.006343654602 5.044032586e-19 0.009258529018)
(0.007246011172 2.389147465e-18 0.009517825138)
(0.008121156368 -1.209832012e-17 0.009811997273)
(0.008965165621 -1.185038761e-17 0.01013945889)
(0.009774391351 5.761624164e-18 0.01049845092)
(0.01054542535 2.153943295e-17 0.01088701444)
(0.01127509329 1.696505097e-17 0.01130297031)
(0.01196046585 6.877815932e-18 0.01174390451)
(0.01259887916 1.167695166e-18 0.01220715816)
(0.01318796067 -7.922991635e-20 0.01268982211)
(0.01372565805 2.455950796e-19 0.01318873618)
(0.01421026932 5.554042963e-19 0.01370049308)
(0.01464047275 6.046165697e-19 0.01422144708)
(0.0150153551 5.978363917e-19 0.0147477274)
(0.01533443704 6.17521833e-19 0.01527525605)
(0.01559769451 6.039847961e-19 0.0157997696)
(0.01580557505 5.986248044e-19 0.01631684456)
(0.01595900785 6.280335824e-19 0.01682192523)
(0.01605940636 6.158559974e-19 0.01731035383)
(0.01610866242 6.122827346e-19 0.01777740275)
(0.01610913481 5.9135282e-19 0.01821831141)
(0.01606362685 5.940426424e-19 0.01862832357)
(0.01597534391 5.669391336e-19 0.01900270859)
(0.01584783961 5.278431322e-19 0.01933679615)
(0.01568494472 5.230595157e-19 0.01962604826)
(0.01549071275 5.921645405e-19 0.01986605534)
(0.01526912373 4.372414547e-19 0.02005305467)
(0.01502462645 1.509526006e-18 0.02018154948)
(0.01475986801 -3.130958431e-18 0.02025821659)
(0.014490611 -4.948721248e-18 0.02022993175)
(0.01415250828 -5.707045941e-18 0.02038429296)
(0.01333972982 -4.699140639e-18 0.01928506043)
(0.01048834369 -2.223191444e-18 0.02294597657)
(0.004092165327 -5.057522431e-19 0.1517414694)
(0.0009792425683 4.3968979e-19 0.007185251747)
(0.001681163527 1.056697162e-18 0.007177311557)
(0.002634580474 -1.963342607e-17 0.007240799553)
(0.003616094619 -5.074764449e-18 0.007355220209)
(0.004596689725 5.023207481e-19 0.007514769624)
(0.005565446051 8.946347119e-19 0.007717273543)
(0.006515712351 5.03796337e-19 0.007961087546)
(0.007442336384 2.401588503e-18 0.008244671827)
(0.008340849124 -1.200593769e-17 0.008566492818)
(0.009207165043 -1.19032669e-17 0.008924865787)
(0.01003747193 5.63922904e-18 0.009317916553)
(0.01082819193 2.14385099e-17 0.009743551436)
(0.01157597621 1.70734491e-17 0.01019943445)
(0.01227771718 7.006083821e-18 0.01068297051)
(0.01293057056 1.201145318e-18 0.01119129384)
(0.01353198345 -7.868016851e-20 0.01172126139)
(0.01407972588 2.435519677e-19 0.01226945157)
(0.01457192368 5.469461304e-19 0.01283216833)
(0.01500709139 5.675892044e-19 0.01340545089)
(0.01538416345 5.546959094e-19 0.01398508898)
(0.01570252245 6.054375056e-19 0.01456664339)
(0.0159620231 6.025009323e-19 0.0151454713)
(0.01616301095 5.870313806e-19 0.01571675589)
(0.01630633449 6.72564763e-19 0.01627553945)
(0.01639334917 6.432513165e-19 0.01681675997)
(0.0164259132 6.133233743e-19 0.01733528931)
(0.01640637729 6.029047216e-19 0.01782597358)
(0.01633756701 5.630855697e-19 0.0182836806)
(0.01622274524 5.905971406e-19 0.01870333967)
(0.01606555817 5.742724386e-19 0.01907997925)
(0.01586996954 5.680416353e-19 0.01940881796)
(0.01564022694 6.101350063e-19 0.01968521376)
(0.01538059414 4.968548455e-19 0.0199055387)
(0.01509586837 1.533853357e-18 0.02006341324)
(0.01478873721 -3.079356219e-18 0.02016881965)
(0.01447573225 -5.008188529e-18 0.02014751488)
(0.01409924416 -5.739732912e-18 0.02040964584)
(0.01319735532 -4.740350481e-18 0.01885278035)
(0.01018689331 -2.049101288e-18 0.02496007445)
(0.003900956878 -4.386494561e-19 0.1597137748)
(0.001007117493 4.396649517e-19 0.005780883312)
(0.001729388011 1.078423931e-18 0.005773825381)
(0.002710405547 -1.95857537e-17 0.00584347055)
(0.003720288097 -5.105336932e-18 0.005968171929)
(0.004729198878 4.953594924e-19 0.006141832275)
(0.005725890472 8.952754935e-19 0.006362168714)
(0.006703496091 5.026786129e-19 0.006627477347)
(0.007656679752 2.418239056e-18 0.006936130691)
(0.008580798091 -1.190587696e-17 0.007286517434)
(0.009471591086 -1.193780817e-17 0.007676861007)
(0.0103250675 5.39123581e-18 0.008105178714)
(0.01113746436 2.135780799e-17 0.008569248305)
(0.01190524181 1.719635517e-17 0.009066582195)
(0.01262509644 7.12231124e-18 0.009594408189)
(0.01329398535 1.253533752e-18 0.01014965581)
(0.01390915675 -6.44870431e-20 0.01072894826)
(0.01446818448 2.56601976e-19 0.01132860032)
(0.01496900428 5.502453492e-19 0.0119446225)
(0.01540995022 6.269858396e-19 0.01257273166)
(0.01578978939 6.302061323e-19 0.01320836815)
(0.01610775359 6.426238193e-19 0.01384671927)
(0.01636356638 6.284091494e-19 0.01448274825)
(0.01655746461 6.277586792e-19 0.01511122838)
(0.01669021268 6.283830306e-19 0.01572678175)
(0.01676310902 6.14465632e-19 0.01632392219)
(0.01677798478 6.259122543e-19 0.01689709915)
(0.01673719449 6.225387802e-19 0.01744074333)
(0.01664359984 6.362475844e-19 0.01794931995)
(0.01650054077 5.950023985e-19 0.01841738625)
(0.01631178794 5.855395897e-19 0.01883963764)
(0.01608147891 5.710158099e-19 0.01921101093)
(0.01581409357 6.372968508e-19 0.01952658017)
(0.01551419182 4.658841006e-19 0.01978278771)
(0.01518705358 1.589397333e-18 0.01997225494)
(0.01483577868 -3.141388839e-18 0.02010861728)
(0.01447630067 -5.028905854e-18 0.02009632727)
(0.0140548735 -5.811553994e-18 0.02046121054)
(0.01304116556 -4.660008205e-18 0.01845161679)
(0.009883946875 -2.045282419e-18 0.0270739574)
(0.003723475078 -3.924395096e-19 0.1675053743)
(0.001037380445 4.393163763e-19 0.004335148595)
(0.00178174138 1.093012026e-18 0.004328848464)
(0.002792724843 -1.954319342e-17 0.00440478116)
(0.003833417869 -5.161616759e-18 0.004540049253)
(0.004873099604 4.825265472e-19 0.004728240426)
(0.005900171764 9.044466993e-19 0.004966957621)
(0.006907537727 5.09123578e-19 0.005254443417)
(0.007889665008 2.430914537e-18 0.005588989041)
(0.008841723104 -1.179503017e-17 0.005968910762)
(0.009759264249 -1.199069703e-17 0.006392347829)
(0.01063810344 5.242993793e-18 0.006857216842)
(0.0114742765 2.123556563e-17 0.007361174309)
(0.01226403515 1.730606338e-17 0.007901587395)
(0.0130038616 7.269426538e-18 0.008475511647)
(0.0136904948 1.290660658e-18 0.009079674796)
(0.01432096402 -6.467352851e-20 0.009710466762)
(0.01489262678 2.506076652e-19 0.0103639365)
(0.01540320914 5.606251479e-19 0.01103579586)
(0.01585084622 6.384818896e-19 0.0117214311)
(0.01623412117 5.676994229e-19 0.01241592189)
(0.01655210077 6.207476797e-19 0.01311406783)
(0.01680436621 6.290035679e-19 0.01381042142)
(0.01699103743 6.217657664e-19 0.01449932706)
(0.01711278994 6.197981466e-19 0.01517496586)
(0.01717086456 6.480484475e-19 0.01583140374)
(0.01716706964 6.396684054e-19 0.01646264175)
(0.01710377351 6.302564854e-19 0.01706266877)
(0.01698388871 6.161810436e-19 0.01762551944)