/*--------------------------------*- C++ -*----------------------------------*\
| =========                 |                                                 |
| \\      /  F ield         | OpenFOAM: The Open Source CFD Toolbox           |
|  \\    /   O peration     | Version:  v1912                                 |
|   \\  /    A nd           | Website:  www.openfoam.com                      |
|    \\/     M anipulation  |                                                 |
\*---------------------------------------------------------------------------*/
FoamFile
{
    version     2.0;
    format      ascii;
    class       volVectorField;
    location    "0.9";
    object      U.liquid_0;
}
// * * * * * * * * * * * * * * * * * * * * * * * * * * * * * * * * * * * * * //

dimensions      [0 1 -1 0 0 0 0];


internalField   nonuniform List<vector> 
4800
(
(0.0007456849512 4.811264276e-19 -0.0005267205315)
(0.001293306068 9.218475862e-19 -0.0005369352449)
(0.002038472706 -1.87250641e-17 -0.000536735564)
(0.002805851932 -4.205613566e-18 -0.0005334458225)
(0.003572218982 5.583866852e-19 -0.000528337636)
(0.004329153837 8.011771078e-19 -0.00052167582)
(0.005071638615 4.867370548e-19 -0.0005135959976)
(0.005795860062 2.155428784e-18 -0.0005041756418)
(0.006498573194 -1.237644748e-17 -0.0004934910439)
(0.007176894619 -1.050239728e-17 -0.0004816170413)
(0.007828215883 7.302103226e-18 -0.0004686299789)
(0.008450172354 2.110160304e-17 -0.0004546120485)
(0.009040639324 1.474836472e-17 -0.0004396527004)
(0.009597739993 5.326149738e-18 -0.0004238493632)
(0.01011985951 7.586372414e-19 -0.0004073078601)
(0.01060566225 1.158798446e-20 -0.0003901426182)
(0.01105411081 3.26324744e-19 -0.0003724767265)
(0.0114644858 5.512634347e-19 -0.0003544418865)
(0.01183640578 5.839669308e-19 -0.0003361782808)
(0.01216984719 5.492417671e-19 -0.0003178344035)
(0.012465164 5.465008385e-19 -0.0002995669108)
(0.01272310724 5.480409238e-19 -0.0002815405599)
(0.01294484474 5.463745475e-19 -0.0002639283423)
(0.01313198194 5.294579909e-19 -0.0002469119664)
(0.01328658536 5.499184256e-19 -0.0002306832366)
(0.0134112136 5.320949255e-19 -0.0002154478489)
(0.01350895516 5.206005076e-19 -0.0002014266024)
(0.0135834793 5.633822955e-19 -0.0001888633552)
(0.01363911386 5.719570092e-19 -0.000178036167)
(0.01368096018 5.646921287e-19 -0.0001692727006)
(0.01371505292 5.477695106e-19 -0.0001629672644)
(0.01374846221 5.321184594e-19 -0.0001595274161)
(0.01379046912 3.37935172e-19 -0.000160153118)
(0.01385130786 1.406224438e-18 -0.0001644551558)
(0.0139569162 -3.420194119e-18 -0.0001835767769)
(0.01409425092 -4.636849519e-18 -0.0001807038098)
(0.01446170581 -4.896319668e-18 -0.000334457554)
(0.01438175776 -4.316645488e-18 0.0001186636376)
(0.01853574358 -3.424838029e-18 -0.003182360532)
(0.01132293465 -1.29859377e-18 0.007720784189)
(0.0007993798006 5.082329595e-19 -0.001618089255)
(0.001371941184 1.001025978e-18 -0.001639517317)
(0.002151678282 -1.981261242e-17 -0.001637871457)
(0.002956198929 -4.748799282e-18 -0.001627763936)
(0.003760783105 5.427206243e-19 -0.001612286522)
(0.004556364262 8.784393024e-19 -0.001592178351)
(0.005337636324 5.281891855e-19 -0.001567813814)
(0.00610062151 2.31907185e-18 -0.001539422275)
(0.00684198543 -1.270498954e-17 -0.001507236612)
(0.00755878539 -1.147217822e-17 -0.001471474841)
(0.008248361001 6.87308183e-18 -0.001432364239)
(0.008908303337 2.196296624e-17 -0.001390150517)
(0.009536448517 1.626203001e-17 -0.001345101539)
(0.01013088411 6.310426086e-18 -0.001297509369)
(0.01068996235 1.026562319e-18 -0.001247691481)
(0.01121231716 -3.846186486e-21 -0.001195991387)
(0.01169688306 3.012604393e-19 -0.001142778818)
(0.01214291523 5.499649693e-19 -0.001088449583)
(0.01255000988 5.98442405e-19 -0.001033425196)
(0.01291812459 5.652215261e-19 -0.0009781523747)
(0.01324759851 5.765991441e-19 -0.0009231025862)
(0.01353917249 5.731796577e-19 -0.0008687718504)
(0.0137940093 5.907124821e-19 -0.0008156811105)
(0.01401371488 5.639148588e-19 -0.0007643776671)
(0.01420036194 5.402375575e-19 -0.0007154390713)
(0.01435651621 5.787207705e-19 -0.0006694814684)
(0.01448527416 6.043130823e-19 -0.0006271691086)
(0.01459031222 5.777480954e-19 -0.0005892316248)
(0.01467595276 5.6504963e-19 -0.0005564968073)
(0.01474726452 5.513848424e-19 -0.0005299354014)
(0.01481020759 5.664977142e-19 -0.0005107131372)
(0.01487175067 5.880156422e-19 -0.0005000497564)
(0.01494039458 3.303478158e-19 -0.0005010865262)
(0.01502618444 1.413425989e-18 -0.000513485854)
(0.01514648093 -3.134093466e-18 -0.0005641900118)
(0.01530075509 -4.457862708e-18 -0.0005631830397)
(0.01566064684 -5.080111488e-18 -0.001000128928)
(0.01575790282 -4.896815834e-18 0.0002111870507)
(0.01726753598 -3.714834214e-18 -0.007638441022)
(0.009332063796 -1.598783399e-18 0.02195741739)
(0.0008057821316 4.683258713e-19 -0.002751908003)
(0.001381092484 1.005104579e-18 -0.002774080077)
(0.00216397956 -1.980845075e-17 -0.002769338864)
(0.002971523282 -4.765754456e-18 -0.002752041438)
(0.003779278456 5.520041067e-19 -0.002726000549)
(0.004578140587 8.755652166e-19 -0.002692298821)
(0.005362749106 5.241300058e-19 -0.002651503324)
(0.006129102923 2.323074356e-18 -0.002603997465)
(0.006873837643 -1.267555787e-17 -0.002550153981)
(0.007593968643 -1.149193947e-17 -0.002490330652)
(0.008286805342 6.842926419e-18 -0.002424904393)
(0.008949912975 2.196387301e-17 -0.002354283641)
(0.009581104015 1.633504952e-17 -0.002278914157)
(0.01017844364 6.304727319e-18 -0.002199282385)
(0.01074026252 1.038857485e-18 -0.002115917439)
(0.01126517356 -1.346139488e-20 -0.002029392143)
(0.01175209072 3.108261977e-19 -0.00194032334)
(0.01220024895 5.394310728e-19 -0.001849371667)
(0.01260922445 5.832696478e-19 -0.001757240927)
(0.01297895482 5.794053975e-19 -0.001664677223)
(0.013309759 6.220951907e-19 -0.001572468132)
(0.0136023568 5.990551193e-19 -0.001481442255)
(0.01385788825 5.784791477e-19 -0.001392469625)
(0.01407793328 5.284458727e-19 -0.001306463773)
(0.01426453235 5.376864446e-19 -0.001224387186)
(0.01442020826 5.6289091e-19 -0.001147260804)
(0.01454799599 5.630675621e-19 -0.001076185619)
(0.01465147971 5.732221229e-19 -0.001012361621)
(0.0147348368 5.694967293e-19 -0.0009571357741)
(0.01480291101 5.464843552e-19 -0.0009120763932)
(0.01486133156 5.216500788e-19 -0.0008790601172)
(0.01491664144 4.900274612e-19 -0.0008600881774)
(0.01497617236 3.827434413e-19 -0.0008593012593)
(0.01504828072 1.389732344e-18 -0.0008773396525)
(0.01514536581 -3.028727208e-18 -0.0009481199612)
(0.01526782938 -4.462388788e-18 -0.0009550261424)
(0.01549144185 -5.055992516e-18 -0.00158103932)
(0.01555253979 -5.052459536e-18 0.0001071123337)
(0.01592458321 -3.419588074e-18 -0.009361233587)
(0.008084266066 -1.511208224e-18 0.03416078814)
(0.0008123307524 4.672623608e-19 -0.003894874789)
(0.001391800303 9.907978727e-19 -0.003916180971)
(0.002179933989 -1.979705808e-17 -0.003907392649)
(0.002992573534 -4.776635544e-18 -0.003882607947)
(0.003805356142 5.423347857e-19 -0.003845870067)
(0.004609187992 8.741751006e-19 -0.003798474719)
(0.005398679117 5.227012553e-19 -0.003741151116)
(0.006169783583 2.324766053e-18 -0.003674429027)
(0.006919092999 -1.264765782e-17 -0.003598802802)
(0.007643584167 -1.150060962e-17 -0.003514769579)
(0.008340525949 6.810243376e-18 -0.003422855401)
(0.00900744356 2.198003016e-17 -0.00332363091)
(0.009642109915 1.636418583e-17 -0.003217719386)
(0.01024255106 6.351601508e-18 -0.003105801418)
(0.01080705897 1.035350497e-18 -0.002988617665)
(0.0113342084 -1.319197025e-20 -0.002866970299)
(0.01182287585 2.948830229e-19 -0.002741723429)
(0.01227225958 5.263213376e-19 -0.002613802746)
(0.01268189993 5.91668452e-19 -0.002484194576)
(0.01305169944 5.82093633e-19 -0.002353944554)
(0.01338194245 6.22210035e-19 -0.00222415626)
(0.01367331403 5.852179653e-19 -0.002095990252)
(0.01392691818 5.852356424e-19 -0.0019706641)
(0.01414429536 5.661273477e-19 -0.001849454343)
(0.01432743944 5.533595525e-19 -0.00173370215)
(0.01447881607 5.6859767e-19 -0.001624824228)
(0.01460137962 5.669849968e-19 -0.001524337545)
(0.01469859651 5.877010957e-19 -0.001433884559)
(0.01477446793 5.627403778e-19 -0.001355279903)
(0.01483355614 5.480963939e-19 -0.001290608529)
(0.01488104291 5.269119103e-19 -0.00124234374)
(0.01492289623 4.962917624e-19 -0.00121321533)
(0.01496550463 2.694222929e-19 -0.001207646199)
(0.01501520123 1.405127058e-18 -0.001226830904)
(0.01507866895 -3.132760394e-18 -0.001307292681)
(0.01515534526 -4.537880632e-18 -0.001317083016)
(0.01524734144 -5.158034111e-18 -0.002006794085)
(0.01527007657 -5.032540941e-18 -9.002930894e-05)
(0.01525391026 -3.269502883e-18 -0.009950565368)
(0.007535706537 -1.372320504e-18 0.04519551648)
(0.0008202117381 4.671366153e-19 -0.005048034047)
(0.001405106716 1.016999861e-18 -0.005067976889)
(0.002200381694 -1.978468254e-17 -0.005054588609)
(0.003020149005 -4.797548647e-18 -0.005022008743)
(0.003839949031 5.410643991e-19 -0.004974374056)
(0.004650667325 8.765053505e-19 -0.004913108721)
(0.005446878892 5.191961588e-19 -0.004839073856)
(0.006224492186 2.333427124e-18 -0.00475292421)
(0.006980049915 -1.260960241e-17 -0.004655276483)
(0.007710480355 -1.15232233e-17 -0.004546761528)
(0.008413002344 6.714811929e-18 -0.004428052091)
(0.009085090251 2.196503562e-17 -0.004299879607)
(0.009724465829 1.639917949e-17 -0.004163043974)
(0.01032910386 6.364343428e-18 -0.00401841939)
(0.0108972452 1.041302849e-18 -0.003866957835)
(0.01142741388 -2.17637499e-20 -0.003709690881)
(0.01191843636 2.875497665e-19 -0.003547730203)
(0.01236946175 5.495351168e-19 -0.003382267035)
(0.01277998236 5.965569218e-19 -0.003214570816)
(0.0131498537 5.786059233e-19 -0.003045987256)
(0.01347931383 5.816453126e-19 -0.002877936199)
(0.01376900155 5.55296895e-19 -0.002711909804)
(0.0140199732 5.546920249e-19 -0.002549471696)
(0.01423371803 5.632726193e-19 -0.00239225802)
(0.01441217142 5.533497739e-19 -0.002241981901)
(0.01455772629 5.613761195e-19 -0.002100444855)
(0.01467324152 5.596318047e-19 -0.001969558002)
(0.01476205147 5.830656133e-19 -0.001851375346)
(0.014827969 5.568517102e-19 -0.001748127895)
(0.01487526998 5.243015848e-19 -0.001662323614)
(0.01490867702 4.743001219e-19 -0.001596884534)
(0.01493337556 5.352429945e-19 -0.001555091891)
(0.01495502782 2.923437461e-19 -0.001541589253)
(0.01497880632 1.42933007e-18 -0.001557134297)
(0.01500678276 -3.253647027e-18 -0.001636929391)
(0.01504139848 -4.566198632e-18 -0.001645706662)
(0.01504760308 -5.222943379e-18 -0.002313630127)
(0.01503941419 -4.966192857e-18 -0.000347906904)
(0.01478145442 -3.181593057e-18 -0.01004220565)
(0.00717101385 -1.228706356e-18 0.05566412778)
(0.0008296808363 4.545497284e-19 -0.006213448675)
(0.001421280271 1.018267695e-18 -0.00623184575)
(0.002225535037 -1.977049023e-17 -0.006213528537)
(0.003054392548 -4.806375236e-18 -0.006172884678)
(0.003883169038 5.295874668e-19 -0.006114128687)
(0.004702684915 8.682362328e-19 -0.006038770977)
(0.005507463704 5.228309752e-19 -0.005947782638)
(0.006293359585 2.341855353e-18 -0.005841929182)
(0.007056858081 -1.257468704e-17 -0.005721945198)
(0.007794828746 -1.153139883e-17 -0.005588591132)
(0.008504429937 6.662078156e-18 -0.005442683477)
(0.009183074081 2.190464215e-17 -0.005285112605)
(0.009828420053 1.640437317e-17 -0.005116853789)
(0.01043837924 6.403737902e-18 -0.004938974059)
(0.01101112898 1.043041202e-18 -0.004752636345)
(0.01154513011 -3.108764855e-20 -0.00455910164)
(0.0120391466 2.792355372e-19 -0.004359729549)
(0.01249226627 5.205163891e-19 -0.004155977499)
(0.01290392142 5.903944991e-19 -0.003949398856)
(0.01327390909 5.763176844e-19 -0.003741640203)
(0.01360240998 5.87517137e-19 -0.003534438177)
(0.01389000603 5.622838357e-19 -0.003329616386)
(0.01413769573 5.698062681e-19 -0.003129083137)
(0.01434690728 5.603513542e-19 -0.002934830859)
(0.01451950827 5.492955436e-19 -0.002748938121)
(0.01465781087 5.644690222e-19 -0.002573578578)
(0.01476457215 5.614884818e-19 -0.002411038883)
(0.01484298885 5.871069014e-19 -0.002263751532)
(0.01489668835 5.361140023e-19 -0.002134321929)
(0.01492968751 4.998234676e-19 -0.002025600235)
(0.0149463199 4.944569488e-19 -0.001940822147)
(0.01495113501 5.397603562e-19 -0.001883551504)
(0.01494898802 2.904591244e-19 -0.001858812175)
(0.01494464613 1.37416333e-18 -0.001866726058)
(0.01493823966 -3.323493857e-18 -0.001937970031)
(0.0149386241 -4.517022782e-18 -0.001947774707)
(0.01489628882 -5.28208644e-18 -0.002551300893)
(0.01492875115 -4.975950801e-18 -0.0006732689331)
(0.01445743118 -3.054402858e-18 -0.009750250523)
(0.006874042478 -1.109927172e-18 0.06572146429)
(0.0008408981804 4.681504168e-19 -0.007393475338)
(0.001440514483 1.038900084e-18 -0.007410286921)
(0.002255589337 -1.975140735e-17 -0.007386829329)
(0.003095481565 -4.825066683e-18 -0.007337885116)
(0.003935188004 5.294903679e-19 -0.007267766857)
(0.004765421495 8.760732956e-19 -0.007178055117)
(0.005580633247 5.195827264e-19 -0.00706981753)
(0.006376610317 2.34590825e-18 -0.006943920871)
(0.007149770321 -1.252664884e-17 -0.006801212263)
(0.007896913077 -1.157692602e-17 -0.006642577845)
(0.008615125184 6.646485466e-18 -0.006468974799)
(0.009301745465 2.190515556e-17 -0.006281450236)
(0.009954357802 1.647814007e-17 -0.006081153268)
(0.01057079772 6.432072631e-18 -0.00586934276)
(0.01114916637 1.048095398e-18 -0.005647392117)
(0.01168784864 -3.742233727e-20 -0.005416791761)
(0.01218553346 2.740817154e-19 -0.005179149698)
(0.01264123494 5.074489075e-19 -0.004936190411)
(0.01305431354 5.838449127e-19 -0.004689752321)
(0.01342449644 5.724655686e-19 -0.004441784092)
(0.01375189647 5.742786322e-19 -0.004194340146)
(0.01403702892 5.537506228e-19 -0.00394957592)
(0.0142808258 5.488007301e-19 -0.003709743596)
(0.01448464675 5.7361414e-19 -0.003477189205)
(0.0146502859 5.661744988e-19 -0.003254351367)
(0.01477997209 5.720975973e-19 -0.003043765266)
(0.01487636201 5.724939637e-19 -0.002848076633)
(0.01494252225 5.852817928e-19 -0.002670066246)
(0.01498190945 5.56482798e-19 -0.002512680278)
(0.01499831771 5.357907077e-19 -0.002379054138)
(0.01499577881 5.084122549e-19 -0.002272644139)
(0.01497845832 5.140443263e-19 -0.002197154014)
(0.01495058138 2.930644292e-19 -0.002157828343)
(0.01491669249 1.405347601e-18 -0.002154834528)
(0.01487656323 -3.322533929e-18 -0.002212527232)
(0.01484419271 -4.614372755e-18 -0.002227730942)
(0.01476797259 -5.349748808e-18 -0.002750999506)
(0.01493424156 -5.033300278e-18 -0.001148624764)
(0.01427542136 -2.955480113e-18 -0.009036657244)
(0.006622526359 -9.514064842e-19 0.07543424157)
(0.0008539623649 4.532846345e-19 -0.008590653454)
(0.001462945848 1.02503208e-18 -0.008605904544)
(0.002290708438 -1.973291957e-17 -0.008577154264)
(0.003143591817 -4.862745556e-18 -0.008519691662)
(0.003996195515 5.297822257e-19 -0.008437955127)
(0.00483908774 8.804757173e-19 -0.008333592082)
(0.00566662586 5.259176582e-19 -0.008207759452)
(0.006474515103 2.354031028e-18 -0.008061419172)
(0.007259093042 -1.247436175e-17 -0.007895525927)
(0.00801707799 -1.162090284e-17 -0.007711087671)
(0.00874547289 6.530703049e-18 -0.007509199119)
(0.009441530788 2.187761485e-17 -0.007291061664)
(0.01010274804 1.653660022e-17 -0.007057996441)
(0.01072687146 6.489102857e-18 -0.006811452959)
(0.01131191299 1.05837992e-18 -0.006553014501)
(0.01185616856 -4.05336231e-20 -0.006284400942)
(0.01235823911 2.690282186e-19 -0.006007469306)
(0.01281705255 5.233676479e-19 -0.005724212273)
(0.01323188555 5.882439744e-19 -0.005436754876)
(0.01360238428 5.750733341e-19 -0.005147349636)
(0.0139285835 5.870198759e-19 -0.004858370473)
(0.01421092309 5.641512767e-19 -0.004572305926)
(0.01445026133 5.67133448e-19 -0.004291752353)
(0.01464788416 5.723262949e-19 -0.004019408052)
(0.01480550981 5.639568884e-19 -0.003758068325)
(0.01492528577 5.751894906e-19 -0.003510622733)
(0.01500977593 5.741213535e-19 -0.003280063252)
(0.0150619369 5.832885963e-19 -0.003069498519)
(0.01508508275 5.563661996e-19 -0.00288218369)
(0.01508283437 4.939361365e-19 -0.002721510842)
(0.01505902624 5.095520144e-19 -0.002591110161)
(0.01501760536 4.920093838e-19 -0.002494794394)
(0.01496236493 3.169769826e-19 -0.002437740171)
(0.0148976099 1.416301871e-18 -0.002420830965)
(0.01482345672 -3.186704196e-18 -0.002461750437)
(0.01475699663 -4.729233865e-18 -0.0024848486)
(0.01463568173 -5.45413432e-18 -0.002916054857)
(0.01481846354 -4.976058353e-18 -0.001754572027)
(0.01399563894 -2.78608843e-18 -0.007952571965)
(0.006384593363 -8.677365889e-19 0.08483237536)
(0.0008689473225 4.397531249e-19 -0.009807644307)
(0.001488686846 1.029163604e-18 -0.009821392486)
(0.002331044031 -1.97169538e-17 -0.009787225636)
(0.003198904418 -4.887995551e-18 -0.009721032939)
(0.004066400925 5.331032869e-19 -0.009627405776)
(0.004923924806 8.878771445e-19 -0.009508060441)
(0.005765718842 5.250911274e-19 -0.0093642394)
(0.006587391154 2.367511664e-18 -0.00919699619)
(0.007385186451 -1.241051266e-17 -0.009007388582)
(0.008155729197 -1.164492367e-17 -0.008796542475)
(0.008895926303 6.376927202e-18 -0.00856568681)
(0.009602932399 2.181316749e-17 -0.008316174543)
(0.01027414335 1.659301608e-17 -0.008049496747)
(0.01090720399 6.534357262e-18 -0.007767292151)
(0.01150002361 1.067723718e-18 -0.007471353224)
(0.01205079572 -4.385267932e-20 -0.007163629339)
(0.01255802008 2.705510141e-19 -0.006846227326)
(0.01302052559 5.422828709e-19 -0.00652140956)
(0.01343749302 5.918414226e-19 -0.006191589782)
(0.01380847645 5.835049833e-19 -0.005859326885)
(0.01413342281 6.083669407e-19 -0.005527316984)
(0.01441268846 5.919816981e-19 -0.005198384236)
(0.01464705202 5.896524649e-19 -0.004875471061)
(0.0148377226 5.894536405e-19 -0.004561628686)
(0.0149863427 5.603249399e-19 -0.004260008271)
(0.01509498385 5.77836152e-19 -0.00397385113)
(0.01516613019 5.767647032e-19 -0.003706487893)
(0.01520265161 5.920316441e-19 -0.003461345838)
(0.01520775809 5.57225074e-19 -0.003241963484)
(0.01518495317 5.21610232e-19 -0.003051982845)
(0.01513795317 4.867071691e-19 -0.002895195275)
(0.01507057361 5.694858765e-19 -0.002775508829)
(0.01498636383 3.849523165e-19 -0.002697821889)
(0.01488949298 1.497785136e-18 -0.002664132366)
(0.01478023494 -3.152481157e-18 -0.002685658879)
(0.01467640977 -4.832992666e-18 -0.002716338646)
(0.01450648991 -5.53303981e-18 -0.00303946724)
(0.01460788599 -4.843749659e-18 -0.0023520591)
(0.01363614658 -2.649679013e-18 -0.006653941601)
(0.006160039195 -7.767926472e-19 0.09392695193)
(0.000885916983 4.261197478e-19 -0.01104720656)
(0.001517840586 1.022294851e-18 -0.01105952773)
(0.002376745383 -1.969468648e-17 -0.01101983252)
(0.003261609455 -4.909385168e-18 -0.01094469591)
(0.004146033665 5.335586868e-19 -0.01083888751)
(0.005020203413 8.932560312e-19 -0.01070419626)
(0.005878227276 5.256108587e-19 -0.01054194769)
(0.006715601045 2.376456016e-18 -0.01035328541)
(0.00752846354 -1.23415165e-17 -0.01013936598)
(0.008313332651 -1.169282037e-17 -0.009901429315)
(0.009067006475 6.257899927e-18 -0.009640835057)
(0.009786528163 2.173722628e-17 -0.009359084693)
(0.01046917966 1.665685017e-17 -0.009057836832)
(0.01111249009 6.597371887e-18 -0.00873891777)
(0.01171425216 1.09037349e-18 -0.008404328327)
(0.01227254303 -3.30552541e-20 -0.00805624745)
(0.01278574757 2.746550525e-19 -0.007697032774)
(0.01325258251 5.448099807e-19 -0.007329218283)
(0.01367212036 5.968814717e-19 -0.006955509168)
(0.01404381195 6.003818521e-19 -0.006578774124)
(0.01436750676 6.157083721e-19 -0.006202035348)
(0.01464347005 6.012323771e-19 -0.005828456683)
(0.01487239581 6.02072281e-19 -0.005461330481)
(0.01505541455 5.832964119e-19 -0.005104064074)
(0.01519409525 5.628228978e-19 -0.004760166608)
(0.01529044065 5.955094305e-19 -0.004433233134)
(0.01534687019 5.952407978e-19 -0.004126932136)
(0.01536618938 5.971834471e-19 -0.00384500662)
(0.01535154822 5.542505949e-19 -0.00359127299)
(0.01530638648 5.292515412e-19 -0.003369617139)
(0.0152343599 5.107516473e-19 -0.003183998829)
(0.01513923116 5.777716029e-19 -0.003038410525)
(0.01502447619 4.065261073e-19 -0.002937392658)
(0.01489403862 1.485013487e-18 -0.002884102154)
(0.01474843971 -3.149719909e-18 -0.002883765041)
(0.01460438176 -4.870620971e-18 -0.00291892068)
(0.01438836888 -5.562145559e-18 -0.003124032412)
(0.01443676211 -4.791018222e-18 -0.002891547395)
(0.01333494321 -2.521412482e-18 -0.005210814792)
(0.005962226862 -7.08401412e-19 0.1027419343)
(0.0009049323549 4.123883387e-19 -0.01231218713)
(0.001550508586 1.02972731e-18 -0.01232316894)
(0.002427965353 -1.966654827e-17 -0.01227783695)
(0.003331908885 -4.946507765e-18 -0.01219353508)
(0.004235343879 5.184504829e-19 -0.01207523497)
(0.005128223336 8.946845239e-19 -0.01192480245)
(0.006004503075 5.287314189e-19 -0.01174364304)
(0.00685955167 2.380396327e-18 -0.01153299078)
(0.007689389094 -1.227469696e-17 -0.01129409644)
(0.008490413645 -1.172287783e-17 -0.01102830983)
(0.009259301497 6.167695096e-18 -0.01073711743)
(0.009992970859 2.165167985e-17 -0.01042216586)
(0.01068857585 1.674699361e-17 -0.01008527848)
(0.01134351562 6.666396283e-18 -0.009728467199)
(0.01195545175 1.114648252e-18 -0.009353940207)
(0.01252233052 -4.110712336e-20 -0.008964106101)
(0.01304240764 2.872195839e-19 -0.008561574555)
(0.01351427395 5.353990189e-19 -0.008149153537)
(0.01393688093 6.43301234e-19 -0.007729843181)
(0.0143095647 6.158792059e-19 -0.007306826458)
(0.01463206764 6.042372471e-19 -0.006883456929)
(0.01490455651 5.986061e-19 -0.006463243968)
(0.0151276361 6.050051302e-19 -0.00604983598)
(0.01530235742 5.352350986e-19 -0.005647002485)
(0.01543021937 5.736607611e-19 -0.005258616069)
(0.01551316383 6.063760418e-19 -0.004888631326)
(0.01555356037 6.032746325e-19 -0.004541060905)
(0.01555417516 6.000450843e-19 -0.004219966591)
(0.01551813094 5.629449469e-19 -0.003929452657)
(0.01544885332 5.481609514e-19 -0.003673647442)
(0.01534999258 5.41385592e-19 -0.003456690376)
(0.01522533404 5.776344151e-19 -0.003282673525)
(0.01507846509 4.601095856e-19 -0.003155813243)
(0.01491318778 1.438964627e-18 -0.003080121551)
(0.01473056264 -3.040485224e-18 -0.003055903418)
(0.01454736648 -4.918897289e-18 -0.003092037905)
(0.01428911434 -5.563047352e-18 -0.003175040127)
(0.0142839661 -4.76338271e-18 -0.003387250506)
(0.01306102594 -2.387647202e-18 -0.003629039911)
(0.005783666349 -6.382254766e-19 0.1113057379)
(0.0009260550002 4.541168831e-19 -0.01360551951)
(0.001586794868 1.0508115e-18 -0.0136152582)
(0.002484863888 -1.964842872e-17 -0.0135641798)
(0.003410018555 -4.978299517e-18 -0.01347048066)
(0.004334603006 5.214019322e-19 -0.01333935739)
(0.005248312857 8.903290099e-19 -0.01317275746)
(0.006144933953 5.097167113e-19 -0.01297216139)
(0.007019693183 2.377529253e-18 -0.01273889579)
(0.007868478668 -1.218012102e-17 -0.01247430006)
(0.008687555872 -1.177616452e-17 -0.01217982962)
(0.009473465706 5.948905304e-18 -0.01185709352)
(0.01022298757 2.157107138e-17 -0.01150787956)
(0.01093313335 1.681603348e-17 -0.01113417264)
(0.01160115728 6.735719309e-18 -0.01073816793)
(0.01222457467 1.11783499e-18 -0.0103222798)
(0.01280118564 -6.980397244e-20 -0.009889146556)
(0.01332910168 2.569906598e-19 -0.009441631367)
(0.01380677335 5.119667249e-19 -0.008982819074)
(0.01423301766 5.982709762e-19 -0.008516009057)
(0.01460704406 6.002254676e-19 -0.008044704205)
(0.0149284778 6.229506953e-19 -0.007572596256)
(0.0151973796 5.99003289e-19 -0.007103547916)
(0.01541426054 5.924887179e-19 -0.006641572205)
(0.01558009135 5.909509203e-19 -0.006190809974)
(0.01569630463 5.900932992e-19 -0.005755506336)
(0.01576478963 5.955547392e-19 -0.005339984459)
(0.01578787969 5.86253493e-19 -0.004948613516)
(0.01576832481 5.972000807e-19 -0.004585785594)
(0.01570924996 5.535524529e-19 -0.004255905409)
(0.01561410603 5.188866975e-19 -0.003963359382)
(0.0154865885 5.050052444e-19 -0.003712474458)
(0.01533056208 5.589472392e-19 -0.003507480614)
(0.01514976707 4.007025934e-19 -0.003352347485)
(0.01494826757 1.4831196e-18 -0.003251776837)
(0.01472814483 -3.104435581e-18 -0.003202291357)
(0.01450487639 -4.940597103e-18 -0.003236147892)
(0.0142075686 -5.668637088e-18 -0.003197359069)
(0.01416592502 -4.686241496e-18 -0.003846246495)
(0.01282689931 -2.298264661e-18 -0.001912257858)
(0.005621058126 -5.445230126e-19 0.1196403898)
(0.0009493487842 4.412565545e-19 -0.0149302258)
(0.001626808071 1.042376925e-18 -0.01493882456)
(0.002547609779 -1.962371418e-17 -0.01488188656)
(0.003496169565 -5.003118876e-18 -0.01477854647)
(0.004444104529 5.140758775e-19 -0.01463424638)
(0.005380827849 8.87456747e-19 -0.01445102282)
(0.006299942063 5.039715745e-19 -0.01423042498)
(0.00719651801 2.382905663e-18 -0.01397387229)
(0.008066297508 -1.209003111e-17 -0.01368278777)
(0.008905400409 -1.182365438e-17 -0.01335872766)
(0.00971021881 5.791818153e-18 -0.01300341862)
(0.01047737902 2.152959904e-17 -0.01261878508)
(0.0112037357 1.691431571e-17 -0.01220696961)
(0.01188638258 6.821966295e-18 -0.0117703479)
(0.01252267265 1.145145616e-18 -0.01131153894)
(0.01311024373 -7.87686734e-20 -0.0108334108)
(0.01364704716 2.490802125e-19 -0.01033908177)
(0.01413137786 5.557896458e-19 -0.009831916994)
(0.0145619041 6.040113975e-19 -0.009315520254)
(0.01493769592 5.964984731e-19 -0.008793721238)
(0.01525825075 6.16326395e-19 -0.008270558326)
(0.01552351514 6.029970739e-19 -0.007750257429)
(0.01573390159 5.974146451e-19 -0.007237207315)
(0.01589029942 6.270377098e-19 -0.006735932349)
(0.01599407802 6.145300466e-19 -0.006251062866)
(0.01604708217 6.107329389e-19 -0.005787303287)
(0.01605162151 5.904331037e-19 -0.005349395594)
(0.01601044935 5.935087089e-19 -0.004942081998)
(0.01592672142 5.653935425e-19 -0.004570083806)
(0.01580394334 5.272974083e-19 -0.004238066357)
(0.015645901 5.217892462e-19 -0.003950566631)
(0.01545660547 5.909589125e-19 -0.003711997228)
(0.01524000248 4.36431193e-19 -0.003526134147)
(0.0150004825 1.509363848e-18 -0.003398481632)
(0.01474071906 -3.101156488e-18 -0.003322376254)
(0.01447614985 -4.957115684e-18 -0.003350903666)
(0.01414352258 -5.710100742e-18 -0.003196537623)
(0.01407783348 -4.690187132e-18 -0.00428373105)
(0.01262399648 -2.208797917e-18 -5.115983914e-05)
(0.005470338461 -4.938546496e-19 0.1277634483)
(0.0009748807849 4.400601109e-19 -0.01628942056)
(0.001670662557 1.051539025e-18 -0.01629698853)
(0.002616381392 -1.959145929e-17 -0.01623407302)
(0.003590605887 -5.049176121e-18 -0.01612083611)
(0.004564160883 5.073523036e-19 -0.01596298421)
(0.005526152561 8.924040156e-19 -0.01576265172)
(0.006469984982 5.042461699e-19 -0.01552145042)
(0.007390559815 2.395393818e-18 -0.01524088909)
(0.008283459328 -1.199951933e-17 -0.01492247039)
(0.009144644556 -1.187640253e-17 -0.01456784571)
(0.009970344917 5.671481868e-18 -0.01417885354)
(0.01075701888 2.143233642e-17 -0.01375754955)
(0.0115013482 1.702346945e-17 -0.01330622944)
(0.01220024974 6.948407693e-18 -0.01282744601)
(0.01285089716 1.178239792e-18 -0.01232402101)
(0.01345074879 -7.958663357e-20 -0.01179905209)
(0.01399757876 2.475077246e-19 -0.01125591453)
(0.01448950985 5.476347624e-19 -0.01069825765)
(0.01492504623 5.661549196e-19 -0.01012999575)
(0.01530310473 5.540177743e-19 -0.00955529346)
(0.01562304332 6.04280171e-19 -0.008978545986)
(0.01588468541 6.011306776e-19 -0.008404354465)
(0.01608833915 5.852606006e-19 -0.007837497156)
(0.01623481026 6.722633538e-19 -0.00728289705)
(0.01632540695 6.407352768e-19 -0.006745585841)
(0.01636193685 6.123093006e-19 -0.006230666291)
(0.01634669791 6.015240515e-19 -0.005743272163)
(0.01628246205 5.620520574e-19 -0.005288520908)
(0.01617243897 5.901915791e-19 -0.004871473927)
(0.01602022343 5.729237171e-19 -0.004497098688)
(0.01582973135 5.664100161e-19 -0.00417017795)
(0.01560516415 6.087532115e-19 -0.003895358132)
(0.01535074987 4.962156252e-19 -0.003676282812)
(0.01507122472 1.533030142e-18 -0.003519334594)
(0.01476930206 -3.051866903e-18 -0.003414575824)
(0.01446124796 -5.016882213e-18 -0.003436122798)
(0.0140907271 -5.742409323e-18 -0.003174051789)
(0.01398883488 -4.734167085e-18 -0.004698967371)
(0.01242966871 -2.042316707e-18 0.001945588686)
(0.005333240258 -4.311762865e-19 0.1356912948)
(0.001002721748 4.401704462e-19 -0.01768631575)
(0.001718478987 1.072985726e-18 -0.01769296711)
(0.002691367426 -1.954423058e-17 -0.01762395083)
(0.003693587204 -5.07889137e-18 -0.0175005487)
(0.004695105353 5.005026098e-19 -0.0173287512)
(0.005684697122 8.933625978e-19 -0.01711079754)
(0.006655552653 5.026948686e-19 -0.01684835622)
(0.00760239184 2.411879494e-18 -0.01654302041)
(0.00852062482 -1.190245903e-17 -0.01619636757)
(0.0094060405 -1.19116328e-17 -0.01581013773)
(0.01025469142 5.426487162e-18 -0.01538627443)
(0.01106285291 2.135428389e-17 -0.01492695823)
(0.01182701748 1.714512047e-17 -0.0144346325)
(0.01254390772 7.062105076e-18 -0.01391202301)
(0.01321049995 1.228042345e-18 -0.01336215184)
(0.0138240545 -6.551710544e-20 -0.01278834586)
(0.01438214989 2.606638031e-19 -0.01219423922)
(0.01488271892 5.514243432e-19 -0.0115837699)
(0.01532408488 6.260435481e-19 -0.01096116963)
(0.01570499634 6.302152232e-19 -0.01033094756)
(0.01602465893 6.415771323e-19 -0.00969786761)
(0.0162827628 6.269547596e-19 -0.009066920366)
(0.01647950469 6.271450955e-19 -0.008443289808)
(0.016615603 6.264933279e-19 -0.007832315411)
(0.01669230528 6.142772983e-19 -0.007239449964)
(0.01671138806 6.24577823e-19 -0.006670216242)
(0.01667514889 6.214491664e-19 -0.006130161857)
(0.01658639158 6.345546916e-19 -0.005624806158)
(0.01644839873 5.94694364e-19 -0.005159582752)
(0.01626488555 5.843687167e-19 -0.004739793211)
(0.01603993796 5.700026044e-19 -0.004370504123)
(0.01577798599 6.362829426e-19 -0.004056648085)
(0.01548355161 4.644489134e-19 -0.003801801931)
(0.01516185021 1.589331777e-18 -0.003613343085)
(0.01481600877 -3.113179516e-18 -0.003477710102)
(0.01446172673 -5.037346257e-18 -0.00349026585)
(0.01404662284 -5.815041735e-18 -0.003125666761)
(0.01388311339 -4.650708644e-18 -0.005070953825)
(0.01223029454 -2.032516073e-18 0.004043403923)
(0.005209022567 -3.810885042e-19 0.143441163)
(0.001032946258 4.402307937e-19 -0.01912422595)
(0.001770384456 1.087270005e-18 -0.01913007899)
(0.002772766866 -1.950264129e-17 -0.01905483324)
(0.003805388364 -5.134729658e-18 -0.01892098578)