/*--------------------------------*- C++ -*----------------------------------*\
| =========                 |                                                 |
| \\      /  F ield         | OpenFOAM: The Open Source CFD Toolbox           |
|  \\    /   O peration     | Version:  v1912                                 |
|   \\  /    A nd           | Website:  www.openfoam.com                      |
|    \\/     M anipulation  |                                                 |
\*---------------------------------------------------------------------------*/
FoamFile
{
    version     2.0;
    format      ascii;
    class       volScalarField;
    location    "0.6";
    object      alpha.gas_0;
}
// * * * * * * * * * * * * * * * * * * * * * * * * * * * * * * * * * * * * * //

dimensions      [0 0 0 0 0 0 0];


internalField   nonuniform List<scalar> 
4800
(
1.618605026e-181
8.00742583e-182
6.324253554e-182
6.015134167e-182
6.196035584e-182
7.182951195e-182
8.98023521e-182
1.198066815e-181
1.694522643e-181
2.530654184e-181
3.964962432e-181
6.483273868e-181
5.319129542e-181
4.518157665e-175
3.089915091e-175
3.606577789e-175
8.658764535e-172
3.106426598e-168
1.019530485e-164
3.067844602e-161
8.193712378e-158
1.896348905e-154
1.614627793e-151
8.181830306e-149
2.372659129e-153
1.236690674e-136
1.7890241e-137
1.669829653e-149
2.056714712e-107
4.971877024e-106
5.846819488e-121
1.970139361e-79
1.894131356e-78
1.906294313e-78
1.687300668e-63
4.42738868e-80
5.719920933e-51
0
4.263697487e-05
0.01057190171
8.536330326e-179
4.163679917e-179
3.269233751e-179
3.090650873e-179
3.167385312e-179
3.645131205e-179
4.519737699e-179
5.973667441e-179
8.361031854e-179
1.23430696e-178
1.909823059e-178
3.081337087e-178
2.631956737e-178
1.888658917e-172
1.326507968e-172
8.147969252e-173
7.082746856e-170
2.250712133e-166
6.387600807e-163
1.635494116e-159
3.656298328e-156
7.349452809e-153
2.828747285e-150
1.5321417e-147
2.3765614e-153
1.117711893e-133
3.39176337e-134
1.66982943e-149
0
8.312329229e-102
0
1.143687527e-77
6.68746535e-95
2.926886032e-63
1.617229118e-61
4.497575332e-80
7.290539665e-49
0
0.0001799672078
0.0151277988
2.129826934e-176
1.029103283e-176
8.035406255e-177
7.550292015e-177
7.697533598e-177
8.792613239e-177
1.081039522e-176
1.415137244e-176
1.959529006e-176
2.858618745e-176
4.366516056e-176
6.948471114e-176
6.169362775e-176
3.705926434e-170
2.682695578e-170
1.361670783e-170
2.985202447e-168
8.55329174e-165
2.102532733e-161
4.417720579e-158
7.369095079e-155
1.191938551e-151
1.224996567e-149
1.577470188e-146
2.374708585e-153
1.044773156e-132
2.664399899e-129
3.604188221e-130
0
7.120497444e-98
0
4.710546181e-76
5.998057201e-95
8.60775267e-60
8.087394373e-59
1.771840778e-78
1.21178349e-46
3.83595775e-67
0.0004169496496
0.02048302995
3.414520096e-174
1.637008353e-174
1.271366445e-174
1.187320113e-174
1.204104256e-174
1.365026837e-174
1.663924304e-174
2.157048432e-174
2.954499879e-174
4.258505208e-174
6.420414729e-174
1.00745548e-173
9.284530218e-174
4.621369481e-168
3.466744744e-168
1.704353703e-168
8.453021827e-167
2.257404504e-163
5.023765759e-160
8.92774133e-157
9.919237416e-154
1.024320916e-150
1.149207302e-151
3.885423522e-143
1.108893907e-143
0
4.736216642e-124
4.911236469e-125
0
5.021290283e-95
0
5.89249792e-75
1.512679624e-94
2.593564223e-57
8.235789946e-57
2.395599007e-76
6.044456502e-45
8.748338289e-69
0.0007265813204
0.02550937651
3.970684795e-172
1.890201382e-172
1.460325002e-172
1.355430063e-172
1.36727901e-172
1.538182924e-172
1.858750545e-172
2.385972356e-172
3.232260856e-172
4.602416959e-172
6.847754887e-172
1.059336508e-171
1.011594153e-171
4.125497888e-166
3.227634482e-166
1.601983296e-166
1.73826745e-165
4.381181553e-162
9.294232577e-159
1.517668997e-155
1.171586677e-152
4.587216339e-150
9.477780527e-152
1.765829177e-140
4.020410807e-141
3.909844321e-160
2.353486885e-120
2.43647619e-121
0
1.927298036e-92
0
3.435156697e-74
3.190887673e-93
1.907499007e-55
2.594332848e-55
9.707131761e-74
8.407191323e-44
1.792025837e-65
0.001076982678
0.02994027328
3.575262176e-170
1.690589063e-170
1.299350564e-170
1.198591904e-170
1.202569533e-170
1.342451188e-170
1.607992048e-170
2.043590288e-170
2.737763303e-170
3.850501517e-170
5.652786801e-170
8.619570108e-170
8.511790617e-170
2.808546759e-164
2.308976123e-164
1.169208205e-164
2.836579403e-164
6.292618826e-161
1.313991871e-157
2.104517163e-154
1.339975991e-151
8.546170157e-150
9.472264261e-152
4.957323739e-139
1.936899038e-139
4.794311917e-158
2.2199356e-118
3.690297151e-119
2.950838369e-138
2.664073214e-89
0
1.045480925e-73
0
3.256782053e-54
2.863737709e-54
1.190387567e-72
1.885064426e-43
4.955152657e-65
0.001433761284
0.03380022754
2.595816808e-168
1.219507995e-168
9.324582202e-169
8.548220938e-169
8.529940792e-169
9.447851469e-169
1.121599469e-168
1.41109126e-168
1.869196605e-168
2.596245839e-168
3.760042583e-168
5.650184685e-168
5.756483112e-168
1.515075217e-162
1.320628536e-162
6.842318545e-163
4.804559534e-163
6.696364188e-160
1.397648849e-156
2.261782831e-153
1.311299009e-150
1.680484474e-150
1.017714335e-151
1.087922282e-138
7.34128462e-136
0
1.15507298e-117
1.804210036e-117
0
7.439377662e-87
0
1.806342108e-73
2.015451483e-92
1.657587805e-53
1.106265936e-53
0
1.888885213e-43
0
0.00176683246
0.03726472917
1.561952019e-166
7.291425272e-167
5.546428571e-167
5.05291303e-167
5.014313813e-167
5.510018796e-167
6.482108124e-167
8.07184605e-167
1.05705138e-166
1.449682747e-166
2.070760025e-166
3.065847824e-166
3.214249696e-166
6.639506443e-161
6.201852547e-161
3.290553372e-161
1.240577604e-161
5.303580879e-159
1.115504865e-155
1.84842708e-152
9.839124728e-150
3.512720817e-150
1.187559903e-146
3.488324445e-150
1.319121326e-132
7.652483261e-133
0
4.674460136e-113
0
4.706247868e-85
6.303273513e-104
2.933960184e-73
0
1.843656824e-53
1.577376149e-53
7.404651631e-72
1.885810797e-43
1.173356604e-64
0.002248566694
0.04034538932
7.942787949e-165
3.684541672e-165
2.788260216e-165
2.524176944e-165
2.490859161e-165
2.715137999e-165
3.164761301e-165
3.899918342e-165
5.047936415e-165
6.834100012e-165
9.626001457e-165
1.403839661e-164
1.510235799e-164
2.403183365e-159
2.436514985e-159
1.324045517e-159
4.240879313e-160
3.160859657e-158
6.704485686e-155
1.148742504e-151
5.503140422e-149
1.334905734e-149
2.848025226e-145
3.823715026e-158
2.474705396e-130
2.080896482e-130
7.057572984e-150
1.223848069e-108
0
1.041919084e-83
0
8.62064725e-73
0
1.841943579e-53
1.536983289e-53
1.992281417e-75
1.88291735e-43
0
0.002770039722
0.0430932423
3.462982775e-163
1.596408198e-163
1.201786011e-163
1.081035798e-163
1.0606627e-163
1.146711907e-163
1.324040765e-163
1.614272665e-163
2.064751609e-163
2.758796049e-163
3.830733691e-163
5.501769753e-163
6.05467259e-163
7.263154742e-158
8.116823031e-158
4.516366296e-158
1.399951633e-158
1.485988383e-157
3.045612102e-154
5.427912487e-151
2.30145088e-148
2.364193168e-149
1.153106719e-143
1.517343272e-156
1.000119524e-128
8.145406162e-129
4.718088539e-148
2.549330508e-104
0
1.009151487e-82
0
1.368568254e-72
3.052688971e-92
1.840596402e-53
1.295351315e-53
1.041253942e-72
1.880162137e-43
1.467076742e-64
0.003320579957
0.04554755571
1.308633851e-161
5.995118506e-162
4.489381407e-162
4.012191157e-162
3.913427236e-162
4.195502524e-162
4.797594762e-162
5.785587071e-162
7.310655532e-162
9.637834403e-162
1.318941849e-161
1.86506317e-161
2.092727239e-161
1.845159042e-156
2.31524262e-156
1.318322889e-156
4.044518241e-157
6.977759946e-157
1.052265712e-153
1.92968625e-150
7.371757362e-148
2.695879053e-149
1.910164415e-142
3.844773233e-158
1.442630709e-127
1.039857209e-127
6.197346737e-147
7.679177674e-101
0
4.257192636e-82
0
1.36902173e-72
0
1.839737876e-53
8.591687303e-54
2.44588763e-65
1.563364426e-43
0
0.00386091827
0.04776887852
4.321787299e-160
1.967475222e-160
1.465398565e-160
1.300978881e-160
1.261223747e-160
1.340491052e-160
1.517658059e-160
1.809763004e-160
2.258541385e-160
2.937035923e-160
3.960275559e-160
5.512378763e-160
6.284471671e-160
3.95231168e-155
5.693053846e-155
3.31443777e-155
1.009743788e-155
5.738799399e-156
2.870234057e-153
5.018372568e-150
1.96033859e-147
2.825664649e-149
1.406009414e-141
1.518327041e-156
8.259851103e-127
5.97785251e-127
4.706698236e-146
2.767953297e-98
0
4.778818365e-82
8.082443123e-101
1.368918237e-72
4.120468805e-92
1.732901838e-53
0
8.501486737e-47
0
0
0.004396393464
0.04980372228
1.255144929e-158
5.677381022e-159
4.205090268e-159
3.707856312e-159
3.571689289e-159
3.762425837e-159
4.216148079e-159
4.970043219e-159
6.124163894e-159
7.853780762e-159
1.043161469e-158
1.428899333e-158
1.649026614e-158
7.136457327e-154
1.212211981e-153
7.204249804e-154
2.181621225e-154
8.107574183e-155
7.603768902e-153
8.972360708e-150
3.655574273e-147
2.989602868e-149
2.616901791e-141
3.895713579e-158
1.858138913e-126
1.765300086e-126
7.422373198e-146
1.883255358e-96
2.79687754e-116
4.780033681e-82
0
1.368647166e-72
0
1.164605379e-53
0
8.511016418e-47
0
9.769090215e-07
0.004926286746
0.05168960177
3.220237499e-157
1.446887019e-157
1.065441226e-157
9.328251213e-158
8.925679835e-158
9.315945486e-158
1.032957562e-157
1.203388372e-157
1.463752894e-157
1.850759413e-157
2.42079491e-157
3.262201414e-157
3.795908707e-157
1.082269414e-152
2.241920311e-152
1.355334849e-152
4.086047584e-153
1.24747802e-153
3.248561092e-152
9.752498257e-150
3.647334409e-147
3.278551716e-149
2.619855887e-141
1.518093415e-156
2.168279943e-126
2.291160049e-126
0
3.740782299e-95
0
4.779480278e-82
0
1.208878575e-72
0
4.188548282e-54
0
8.405455749e-47
5.369492329e-66
4.241112443e-06
0.005451126517
0.05345232769
7.321020715e-156
3.266049644e-156
2.390218202e-156
2.077338823e-156
1.973752691e-156
2.040551504e-156
2.238204865e-156
2.576354699e-156
3.092789482e-156
3.854568458e-156
4.963261681e-156
6.577175733e-156
7.684222168e-156
1.367870147e-151
3.611223173e-151
2.20475262e-151
6.63436235e-152
1.792490042e-152
2.149505299e-151
5.914008478e-150
2.57784592e-147
2.234619037e-148
2.459150586e-141
9.737964037e-147
2.159807292e-126
2.291225389e-126
2.68841973e-145
3.040604284e-94
0
4.691634291e-82
1.578849404e-101
6.695284493e-73
2.134626566e-92
5.977048333e-55
0
3.696650526e-47
0
9.785520248e-06
0.005971819801
0.05511017531
1.477225162e-154
6.539542391e-155
4.754647174e-155
4.100828948e-155
3.867871415e-155
3.960081668e-155
4.296094621e-155
4.885211004e-155
5.786407895e-155
7.106052425e-155
9.002970936e-155
1.172533158e-154
1.369416866e-154
1.421914324e-150
5.076414823e-150
3.0992752e-150
9.324178009e-151
2.324326247e-151
1.401873028e-150
8.096184494e-150
2.702387568e-147
3.15754045e-145
3.712123337e-157
2.659076064e-128
2.032051339e-126
2.122227786e-126
0
1.080900575e-93
4.264689107e-113
3.577798417e-82
0
1.650145919e-73
5.878514505e-92
2.385947252e-56
0
4.255185164e-48
7.032838213e-67
1.711457632e-05
0.006488785628
0.05667691006
2.646028879e-153
1.161629838e-153
8.387933237e-154
7.178243907e-154
6.719639754e-154
6.812446514e-154
7.308524066e-154
8.208125463e-154
9.589227822e-154
1.159710917e-153
1.444654084e-153
1.847845789e-153
2.147913216e-153
1.189785234e-149
6.188844711e-149
3.784245742e-149
1.13086666e-149
2.675558947e-150
7.911521088e-150
2.259966048e-149
1.827752868e-146
1.583302189e-144
6.091621882e-164
1.159975739e-125
1.29702454e-125
5.230906282e-126
0
1.280051336e-93
0
1.785467766e-82
3.748034529e-101
1.078046416e-74
2.896621697e-84
1.784580559e-58
6.436103953e-100
8.058133602e-50
2.88617626e-78
2.586188584e-05
0.007004737826
0.05816347433
4.202404921e-152
1.828677691e-152
1.311218715e-152
1.113370575e-152
1.034304377e-152
1.038204735e-152
1.101175367e-152
1.220862171e-152
1.405734667e-152
1.672751632e-152
2.047096963e-152
2.570092366e-152
2.961127516e-152
7.728097563e-149
6.312286324e-148
4.058268035e-148
1.174165817e-148
2.691253865e-149
3.856690721e-149
1.349342382e-149
9.570110425e-143
9.936053714e-144
0
6.942196333e-124
7.003532088e-124
2.1760778e-124
6.244242266e-144
1.280029022e-93
2.285761105e-113
6.809866142e-83
4.602989337e-84
0
7.451764861e-66
3.660045213e-67
1.271453927e-55
1.652483977e-52
8.946668659e-77
3.596074554e-05
0.007522819827
0.05957972024
5.903772171e-151
2.546270768e-151
1.813078423e-151
1.527572067e-151
1.408015829e-151
1.398795519e-151
1.465785443e-151
1.602631569e-151
1.816587631e-151
2.124727488e-151
2.553139346e-151
3.146242998e-151
3.579934458e-151
3.633713242e-148
4.963927822e-147
3.748463953e-147
1.020167992e-147
2.313521408e-148
1.657418868e-148
2.007811853e-155
9.279848975e-138
5.023405675e-139
7.125591504e-158
1.170559541e-122
1.201514246e-122
4.058572809e-123
0
1.280243713e-93
1.537583956e-112
3.402631026e-83
2.090655274e-83
1.749214182e-102
7.48872097e-66
3.784594232e-67
1.552815714e-55
1.504158947e-55
3.379364158e-77
4.745455099e-05
0.008043173639
0.06093370376
7.313594927e-150
3.127254489e-150
2.211224032e-150
1.848004123e-150
1.688775232e-150
1.658525806e-150
1.714411483e-150
1.845589304e-150
2.056986561e-150
2.364095976e-150
2.791120014e-150
3.378973082e-150
3.781947583e-150
1.009759409e-147
3.481596366e-146
2.782285124e-146
7.479162638e-147
1.683817085e-147
6.541891748e-148
7.892498751e-160
9.465095972e-133
3.449932378e-134
0
8.746222722e-122
8.340993054e-122
2.828442058e-122
0
1.106179138e-93
0
2.020687175e-83
2.087169171e-83
0
4.26813014e-66
8.366536788e-86
1.19811724e-55
3.764826041e-56
2.789607901e-78
6.036718228e-05
0.008564104875
0.06223130668
7.960087999e-149
3.372986063e-149
2.36573723e-149
1.958149355e-149
1.770404589e-149
1.714726013e-149
1.744764128e-149
1.847354957e-149
2.025765645e-149
2.292411483e-149
2.664955609e-149
3.170530061e-149
3.464369635e-149
5.473807137e-151
9.242355453e-142
5.085667116e-143
9.439005899e-146
1.316602234e-146
2.545838293e-147
2.81036977e-164
1.033088818e-127
2.167782395e-129
4.486460159e-148
4.329233365e-121
1.703613078e-120
1.232707309e-121
6.410712079e-141
6.157357126e-94
4.247005125e-113
1.447380791e-83
1.215264175e-83
2.388695218e-103
7.012697052e-67
9.549895841e-86
2.97260703e-56
7.127506013e-57
1.797807247e-79
7.467157744e-05
0.00908413174
0.06347624188
7.568789139e-148
3.165243599e-148
2.193809659e-148
1.791711141e-148
1.597095112e-148
1.521873498e-148
1.524532283e-148
1.593287989e-148
1.728707741e-148
1.934599877e-148
2.214318605e-148
2.573226669e-148
2.697540686e-148
2.030610386e-155
4.840730696e-137
2.198308352e-138
2.399842083e-141
4.034141107e-145
1.309668907e-146
1.843495977e-164
1.699866418e-123
2.788260964e-125
0
9.471909988e-121
1.077868968e-117
7.999322249e-119
0
1.742764201e-94
1.274977427e-113
5.40201946e-82
3.769825653e-83
0
2.10900726e-68
2.614661914e-87
1.432029985e-57
3.776242132e-58
1.445925067e-81
9.02923334e-05
0.009602290118
0.064669931
6.196955136e-147
2.527720545e-147
1.718996673e-147
1.379131753e-147
1.211040133e-147
1.141411402e-147
1.140018282e-147
1.193597008e-147
1.291249266e-147
1.42256763e-147
1.57840934e-147
1.752724481e-147
1.714068827e-147
1.523230015e-155
2.788253538e-133
9.612118236e-135
8.309295833e-138
1.595344301e-141
2.842986429e-145
1.903808873e-164
5.08030914e-121
1.541187008e-122
1.877649261e-125
1.773043772e-125
1.871580175e-116
9.783164015e-114
0
1.915627865e-95
4.929311263e-114
3.680673568e-81
7.083440511e-81
8.355952385e-107
7.87365168e-71
2.00666525e-91
8.777413945e-60
3.083329126e-60
1.945187849e-86
0.000107155569
0.01011776721
0.06581142223
4.209695751e-146
1.645749622e-146
1.095788421e-146
8.718459647e-147
7.730713395e-147
7.506107678e-147
7.768030763e-147
8.199294362e-147
8.605087723e-147
8.943778736e-147
9.212060636e-147
9.460174688e-147
8.805827619e-147
1.464339347e-155
7.099415179e-131
2.512507393e-132
3.179854209e-135
1.51247796e-138
7.456724658e-142
0
5.119616441e-120
5.480672581e-120
3.367517579e-121
5.459904503e-120
0
1.509632834e-108
0
5.876802454e-97
2.395004471e-98
1.285436576e-99
4.042124666e-76
2.182266749e-74
2.967901113e-74
1.356374376e-91
4.803594934e-63
2.508881326e-63
8.583742538e-85
0.0001259408787
0.0106292506
0.06689877311
2.237220022e-145
8.57727317e-146
5.965486407e-146
5.197412777e-146
5.248538043e-146
5.735884476e-146
6.007395202e-146
5.687994444e-146
5.226589094e-146
4.820992995e-146
4.480580137e-146
4.59654537e-146
6.917720718e-146
1.522618791e-155
1.336997997e-129
1.191374018e-130
4.185851102e-132
3.091971151e-134
2.307081102e-137
8.332960195e-141
7.909699135e-139
2.46280195e-115
1.287386325e-116
9.499782533e-116
1.067254605e-134
3.333629155e-104
3.340717762e-121
3.297579149e-99
1.2653644e-97
4.85379025e-117
1.958654284e-72
2.185200488e-72
9.803088516e-73
4.058514654e-91
2.705588026e-63
8.614281628e-64
0
0.0001467634871
0.01113502702
0.06793139838
1.100243201e-144
6.082326468e-145
6.235199976e-145
8.008849774e-145
1.211644844e-144
2.129775356e-144
4.25932099e-144
9.510832138e-144
2.354321417e-143
6.435066662e-143
1.936424122e-142
6.393267472e-142
2.322520727e-141
4.576810595e-151
3.450169249e-129
9.638896614e-127
1.40314014e-127
1.181495308e-129
6.842527065e-133
3.600536084e-136
0
9.221490412e-112
3.214495185e-113
3.096388288e-113
2.576173052e-125
9.448252743e-102
5.221706048e-102
0
5.474981654e-93
0
3.169174017e-70
2.493054421e-71
2.788272988e-69
0
4.323470401e-59
8.571923768e-60
2.426091165e-79
0.0001693665895
0.01163419372
0.06890903831
1.690624178e-140
1.802449949e-140
2.306895494e-140
3.288319112e-140
5.233226134e-140
9.394352904e-140
1.887656067e-139
4.211660309e-139
1.041267637e-138
2.843329761e-138
8.550477761e-138
2.822346701e-137
1.018481021e-136
3.996819116e-136
1.778546874e-147
3.103118489e-122
4.240987692e-123
3.126473453e-125
1.406473348e-128
1.073051942e-131
0
1.318393262e-109
6.012502166e-111
3.682945721e-112
1.381738325e-106
4.059637694e-101
1.215275705e-96
9.543387518e-116
4.374478173e-88
8.894158958e-87
2.385832782e-69
7.273014626e-71
1.660322039e-66
0
3.647048672e-56
5.495756807e-57
3.047235085e-76
0.0001936898899
0.01212621948
0.06983099898
7.131653297e-136
7.603619093e-136
9.720732898e-136
1.383905369e-135
2.199474618e-135
3.943061922e-135
7.91165688e-135
1.762719609e-134
4.352421139e-134
1.187199898e-133
3.56737731e-133
1.17711144e-132
4.248359533e-132
1.728816447e-131
0
2.698834274e-118
3.068666252e-119
1.625109337e-121
5.597395701e-125
3.400613356e-127
3.506499087e-124
9.672488154e-109
3.989225328e-109
3.686615276e-112
1.248434335e-101
2.202597956e-105
1.615594035e-91
0
5.121544549e-83
9.077015741e-85
0
2.657583183e-65
2.284193625e-63
0
2.115679415e-54
3.054866704e-55
2.374623405e-74
0.0002196548508
0.01261120347
0.07069684602
2.849530316e-131
3.038185005e-131
3.879430437e-131
5.515407288e-131
8.752540533e-131
1.566699039e-130
3.138387168e-130
6.980934745e-130
1.721103189e-129
4.688579424e-129
1.407517306e-128
4.642076828e-128
1.675657542e-127
6.771610856e-127
6.390157174e-146
1.608359132e-115
1.633928364e-116
7.356250833e-119
3.314879905e-122
1.291304033e-122
3.650323489e-122
0
8.239716463e-105
4.986757393e-105
2.972097e-100
1.099760168e-105
1.79971677e-88
6.346844113e-108
1.375983822e-78
2.654767265e-80
7.372732647e-100
2.902411497e-61
6.175015633e-61
0
1.472599727e-53
3.424341878e-54
1.693773672e-73
0.0002470975348
0.01308916804
0.07150714079
1.079635295e-126
1.151131022e-126
1.467943259e-126
2.083784921e-126
3.301178178e-126
5.898781326e-126
1.179404708e-125
2.61847596e-125
6.444282021e-125
1.752840809e-124
5.255880161e-124
1.732260519e-123
6.252989612e-123
2.508373422e-122
2.563345158e-141
1.087275725e-113
1.135759628e-114
6.401843213e-117
8.295134282e-119
4.84498623e-118
4.053596728e-117
0
1.469332936e-101
4.460387174e-103
6.016424751e-119
8.703013419e-92
3.768821044e-87
1.837682686e-101
6.069071778e-76
2.21931471e-77
1.521898493e-96
1.476275941e-58
9.2101786e-60
0
2.30571308e-53
8.802687802e-53
0
0.0002758518731
0.01355995293
0.07226357838
3.882928363e-122
4.140043665e-122
5.271914738e-122
7.470799709e-122
1.181259358e-121
2.106539267e-121
4.202656641e-121
9.310123685e-121
2.28654127e-120
6.207968012e-120
1.85875455e-119
6.120589897e-119
2.208893072e-118
8.791476309e-118
5.830517865e-131
1.68683772e-112
2.555517297e-113
7.400186112e-115
2.781001034e-114
1.800994016e-113
1.699810831e-112
0
1.872657931e-99
1.450300722e-99
5.848267273e-106
2.58377384e-89
1.777664693e-88
1.088014633e-110
8.259130809e-75
4.674021807e-74
6.028445328e-87
4.444657516e-57
5.194477892e-60
5.007501402e-54
2.837747844e-54
1.236188636e-48
3.335562318e-68
0.0003056575823
0.01402348084
0.0729681873
1.326961766e-117
1.414767696e-117
1.798731745e-117
2.544070291e-117
4.013815752e-117
7.141414731e-117
1.421171675e-116
3.140283795e-116
7.693628723e-116
2.084239745e-115
6.229345896e-115
2.048726803e-114
7.390070972e-114
2.91704915e-113
1.229002223e-112
2.063130663e-111
3.452086858e-111
1.621542494e-110
9.492179957e-110
6.427223801e-109
6.972595236e-108
0
3.048727609e-98
3.027391493e-97
3.884789629e-116
2.109753112e-85
9.075066996e-102
2.111011309e-76
0
4.529454819e-69
1.294775599e-67
1.145610161e-56
1.822095524e-60
2.494444483e-52
2.845138769e-54
4.708182367e-45
9.048114289e-64
0.0003360418483
0.01447880077
0.07362129208
4.313233348e-113
4.598123418e-113
5.835877268e-113
8.236210287e-113
1.296216563e-112
2.30016552e-112
4.56416638e-112
1.005530823e-111
2.456468978e-111
6.637269273e-111
1.97938337e-110
6.499479818e-110
2.342452597e-109
9.244996673e-109
3.988895914e-108
1.864289643e-107
9.451670457e-107
5.177220684e-106
3.093561753e-105
2.222234388e-104
2.927120776e-103
0
1.629639416e-97
2.700674729e-96
6.865357234e-106
3.508854538e-83
1.156779665e-101
1.283515223e-72
3.215672719e-91
3.996087552e-64
9.257270734e-66
9.858019711e-75
2.473989642e-53
3.027443569e-51
2.837747615e-54
2.323035689e-42
1.088904808e-61
0.0003673036813
0.0149243892
0.07422030043
1.334752317e-108
1.42262478e-108
1.802085863e-108
2.5370836e-108
3.981622494e-108
7.044124183e-108
1.393084293e-107
3.058559961e-107
7.446848811e-107
2.005845857e-106
5.965890437e-106
1.954944295e-105
7.036812895e-105
2.776568397e-104
1.199259548e-103
5.617584456e-103
2.853229011e-102
1.576291629e-101
9.597758333e-101
7.551294952e-100
1.272688104e-98
5.181132733e-97
3.275604401e-95
2.714223963e-96
2.405333192e-88
2.47381878e-82
6.358632043e-89
1.818488127e-70
0
1.89676826e-60
5.229064879e-62
2.16947074e-81
9.680698008e-52
1.439863708e-50
2.845138428e-54
2.127644227e-40
0
0.000402308013
0.01535555897
0.07476411487
3.935679501e-104
4.193648125e-104
5.300870289e-104
7.442347887e-104
1.164245885e-103
2.052601619e-103
4.043753918e-103
8.84290937e-103
2.144594506e-102
5.755315454e-102
1.706243087e-101
5.576702633e-101
2.00380183e-100
7.901347859e-100
3.415223476e-99
1.603454942e-98
8.177676301e-98
4.549839226e-97
2.845205124e-96
2.573983781e-95
5.869665157e-94
2.848421523e-92
1.793790312e-90
1.14760701e-88
7.584440062e-87
1.452436546e-100
3.233574166e-74
1.164821226e-69
1.08269336e-74
2.497206851e-58
1.418209887e-59
0
4.586790507e-51
4.818921536e-50
2.837747615e-54
5.19849544e-39
5.518944643e-59
0.0004378514631
0.01577365806
0.07525596679
1.106702446e-99
1.178828447e-99
1.486550029e-99
2.08064773e-99
3.243083446e-99
5.695013631e-99
1.117012708e-98
2.431495315e-98
5.870012743e-98
1.568477078e-97
4.631943628e-97
1.509056712e-96
5.409596408e-96
2.130607524e-95
9.211949888e-95
4.333535102e-94
2.218709553e-93
1.244606558e-92
8.117969695e-92
9.022605194e-91
2.77838212e-89
1.522583554e-87
9.79175007e-86
6.35249424e-84
4.128430491e-82
0
4.484626676e-71
3.34803168e-87
4.963926426e-60
1.769145656e-57
1.440040439e-56
4.731805575e-70
3.883758835e-51
3.970148871e-48
2.845138428e-54
4.430120295e-38
4.27990249e-59
0.000473634998
0.01617797924
0.07570034131
2.970411445e-95
3.16252991e-95
3.977656773e-95
5.548028257e-95
8.612264272e-95
1.505527627e-94
2.938049356e-94
6.361795616e-94
1.527726095e-93
4.061414633e-93
1.193862337e-92
3.874263482e-92
1.38463128e-91
5.443776338e-91
2.35315483e-90
1.108639359e-89
5.696087873e-89
3.229777209e-88
2.259717143e-87
3.320399136e-86
1.326546377e-84
7.85706085e-83
5.110091936e-81
3.268545136e-79
2.016785482e-77
6.488325997e-97
3.606235423e-67
8.737657214e-86
5.529608347e-55
6.131360778e-74
5.894495573e-52
1.782807854e-51
1.410637333e-62
1.725425207e-45
2.837747366e-54
1.392410429e-37
3.813894938e-58
0.0005088159169
0.01656815248
0.07610202966
7.616778187e-91
8.104426372e-91
1.016366763e-90
1.412111576e-90
2.18190602e-90
3.794647401e-90
7.362744591e-90
1.584636294e-89
3.782165742e-89
9.995407837e-89
2.922155731e-88
9.437815362e-88
3.360160701e-87
1.317782154e-86
5.691385989e-86
2.68372158e-85
1.383286369e-84
7.972516453e-84
6.279514568e-83
1.290044254e-81
6.279687235e-80
3.887562746e-78
2.539641145e-76
1.587539401e-74
9.34487414e-73
0
7.004047789e-65
0
2.650220488e-51
0
1.978897016e-47
1.515147112e-46
2.778528348e-63
9.658994852e-44
2.845138514e-54
1.445169977e-37
6.055296713e-61
0.0005429048651
0.01694367836
0.07646605857
1.867635848e-86
1.985630711e-86
2.482081101e-86
3.433470613e-86
5.277517581e-86
9.124860271e-86
1.758924454e-85
3.759501058e-85
8.910218012e-85
2.338656e-84
6.793306431e-84
2.181588201e-83
7.730598002e-83
3.021712804e-82
1.302912802e-81
6.144324714e-81
3.177313142e-80
1.883930757e-79
1.800174341e-78
5.222976525e-77
2.905925327e-75
1.835289614e-73
1.198685981e-71
7.262048504e-70
4.12201514e-68
4.058309549e-66
5.884800516e-64
0
3.277060853e-49
0
6.947395946e-44
7.053816203e-43
2.366747059e-44
1.094643827e-42
2.837325646e-54
1.442884022e-37
7.587503213e-60
0.0005749358691
0.01730433301
0.07679782952
4.383162392e-82
4.655421634e-82
5.798303885e-82
7.981486182e-82
1.219605623e-81
2.094782531e-81
4.007998106e-81
8.499312471e-81
1.998223621e-80
5.203322905e-80
1.50017337e-79
4.785116012e-79
1.685930628e-78
6.561749533e-78
2.82204585e-77
1.329716576e-76
6.907140037e-76
4.320473282e-75
5.504211939e-74
2.152511524e-72
1.300231683e-70
8.239758008e-69
5.355654844e-67
3.125177541e-65
1.812316832e-63
1.903645817e-61
5.919293471e-64
1.387737775e-54
1.989274195e-48
4.219437863e-53
2.048624623e-41
8.785661622e-41
1.790116953e-41
6.445549723e-42
2.845770916e-54
1.439664901e-37
9.283032656e-59
0.0006041164118
0.01764969323
0.07710315889
9.855625639e-78
1.04548053e-77
1.296872177e-77
1.775353716e-77
2.694858083e-77
4.594113892e-77
8.716246278e-77
1.831854522e-76
4.267343093e-76
1.101135574e-75
3.147197399e-75
9.958907705e-75
3.484693324e-74
1.348979658e-73
5.780240413e-73
2.718743802e-72
1.424833397e-71
9.874939051e-71
1.821040831e-69
8.825235103e-68
5.577670568e-66
3.510875011e-64
2.256461709e-62
1.266391865e-60
7.596914821e-59
7.635294679e-57
1.081514854e-54
3.580234173e-53
0
9.055837538e-42
5.368935949e-39
5.486702218e-40
7.359949606e-37
8.194473191e-38
1.161342195e-39
1.386679233e-37
4.814972405e-59
0.0006297734812
0.01797850325
0.07738793068
2.125310067e-73
2.251122226e-73
2.779812662e-73
3.781974934e-73
5.698026799e-73
9.632049517e-73
1.810131736e-72
3.765782164e-72
8.681153791e-72
2.21686066e-71
6.272754297e-71
1.966512566e-70
6.824863737e-70
2.624492126e-69
1.11894119e-68
5.250880731e-68
2.809602925e-67
2.348090059e-66
6.41643365e-65
3.538991777e-63
2.278214596e-61
1.417864365e-59
8.927554936e-58
4.838990106e-56
2.987701515e-54
3.129111321e-52
4.485375396e-50
1.460238548e-48
2.175077121e-67
4.857120373e-37
1.162342036e-35
3.8011788e-40
4.243787589e-32
4.440424034e-33
2.061661096e-35
1.75992977e-37
5.871591314e-57
0.0006512072102
0.01828692649
0.07765773304
4.400348425e-69
4.652314554e-69
5.716036389e-69
7.723145582e-69
1.153864743e-68
1.932031112e-68
3.592011878e-68
7.387317489e-68
1.682897467e-67
4.246830189e-67
1.187868473e-66
3.68386188e-66
1.26625249e-65
4.830004898e-65
2.045906229e-64
9.58972887e-64
5.390051603e-63
6.097389792e-62
2.326337255e-60
1.372759666e-58
8.811128283e-57
5.420414426e-55
3.303396447e-53
1.746063192e-51
1.096990401e-49
1.233628015e-47
1.662001863e-45
4.905801405e-44
0
1.302459367e-33
4.356613727e-34
4.768740619e-47
1.489742505e-27
1.415812362e-28
6.002772308e-31
1.768869771e-33
8.92579582e-65
0.0006650639307
0.01856804817
0.07791694902
8.758087127e-65
9.239152014e-65
1.128787426e-64
1.513399747e-64
2.23989199e-64
3.7105873e-64
6.815772106e-64
1.383636562e-63
3.110000194e-63
7.743144266e-63
2.137376627e-62
6.546111248e-62
2.22499051e-61
8.40425067e-61
3.531892274e-60
1.663506689e-59
1.043454901e-58
1.769003927e-57
8.394687929e-56
5.113004322e-54
3.213472312e-52
1.957838997e-50
1.139500586e-48
5.953046899e-47
3.740594845e-45
4.624453579e-43
5.701618581e-41
1.544766841e-39
0
1.5621552e-31
4.336661463e-34
1.722270238e-28
1.985678453e-24
1.871885161e-25
2.403141658e-27
8.885834843e-29
0
0.0006706258661
0.01881254873
0.0781678192
1.67797125e-60
1.765452979e-60
2.143394205e-60
2.849007806e-60
4.172437681e-60
6.82966001e-60
1.237575211e-59
2.475843628e-59
5.481449229e-59
1.344105065e-58
3.654503875e-58
1.103313283e-57
3.701711104e-57
1.38193916e-56
5.759671908e-56
2.777042892e-55
2.163055673e-54
5.602246659e-53
2.947511394e-51
1.817936179e-49
1.102595141e-47
6.659919011e-46
3.6588949e-44
1.914635356e-42
1.181043098e-40
1.634308005e-38
1.811580377e-36
4.53886723e-35
2.514833231e-35
1.171210585e-30
4.271884011e-34
1.230101325e-23
1.558793172e-22
2.207136845e-23
5.305062105e-23
7.318126056e-24
0
0.0006688527787
0.01900242775
0.0784054262
3.09964695e-56
3.250921283e-56
3.919152394e-56
5.15940932e-56
7.467505503e-56
1.206017538e-55
2.152286436e-55
4.235449712e-55
9.219420332e-55
2.222244297e-54
5.939085981e-54
1.763788765e-53
5.829664252e-53
2.14686263e-52
8.904248546e-52
4.608523622e-51
5.094207526e-50
1.844289758e-48
9.948625245e-47
6.134266799e-45
3.558341659e-43
2.123352074e-41
1.094769378e-39
5.78147166e-38
3.459288523e-36
5.382671707e-34
5.350717316e-32
1.236656787e-30
4.41002705e-30
1.173578227e-30
3.813222815e-23
5.736571501e-21
1.20652795e-21
4.653779174e-20
2.532252018e-18
3.293162811e-19
0
0.0006540521425
0.01913480221
0.07862424512
5.531871227e-52
5.779871481e-52
6.913090914e-52
9.003576848e-52
1.286066351e-51
2.046019982e-51
3.589285669e-51
6.93362532e-51
1.480890324e-50
3.501466496e-50
9.17715816e-50
2.674984539e-49
8.690790564e-49
3.153284264e-48
1.321205725e-47
8.105957541e-47
1.377428247e-45
6.039954952e-44
3.212363913e-42
1.951760904e-40
1.081800315e-38
6.30596171e-37
3.063666395e-35
1.626395685e-33
9.478318019e-32
1.632472098e-29
1.477012014e-27
3.197987133e-26
9.490119755e-26
1.182386481e-30
1.921254014e-19
3.052078126e-19