/*--------------------------------*- C++ -*----------------------------------*\
| =========                 |                                                 |
| \\      /  F ield         | OpenFOAM: The Open Source CFD Toolbox           |
|  \\    /   O peration     | Version:  v1912                                 |
|   \\  /    A nd           | Website:  www.openfoam.com                      |
|    \\/     M anipulation  |                                                 |
\*---------------------------------------------------------------------------*/
FoamFile
{
    version     2.0;
    format      ascii;
    class       volScalarField;
    location    "0.6";
    object      alphat.gas;
}
// * * * * * * * * * * * * * * * * * * * * * * * * * * * * * * * * * * * * * //

dimensions      [1 -1 -1 0 0 0 0];


internalField   nonuniform List<scalar> 
4800
(
2.511558365e-08
4.954150904e-08
6.73560511e-08
8.220956415e-08
9.534787932e-08
1.073769373e-07
1.186610661e-07
1.29449025e-07
1.399270589e-07
1.502450852e-07
1.605311105e-07
1.708998755e-07
1.814584288e-07
1.92309959e-07
2.035566024e-07
2.153016339e-07
2.27651293e-07
2.407164113e-07
2.54613964e-07
2.694686457e-07
2.854145652e-07
3.025971597e-07
3.211754479e-07
3.413247744e-07
3.63240251e-07
3.871411756e-07
4.132768359e-07
4.419342965e-07
4.734490742e-07
5.082199397e-07
5.467316572e-07
5.895754925e-07
6.375649523e-07
6.915332515e-07
7.526062767e-07
8.299266059e-07
8.733382339e-07
1.135631216e-06
3.247455354e-07
1.661716487e-06
4.069658086e-08
8.190507924e-08
1.124370232e-07
1.37941845e-07
1.603550015e-07
1.80603653e-07
1.992243498e-07
2.165619287e-07
2.328540175e-07
2.482728253e-07
2.629480128e-07
2.769801881e-07
2.904493448e-07
3.034203939e-07
3.159469312e-07
3.280738901e-07
3.398394649e-07
3.512765432e-07
3.624138007e-07
3.732765589e-07
3.83887478e-07
3.942671334e-07
4.044345127e-07
4.144074653e-07
4.242031264e-07
4.338383416e-07
4.433301156e-07
4.526961073e-07
4.619552281e-07
4.711279688e-07
4.802410844e-07
4.892905962e-07
4.985419131e-07
5.065924623e-07
5.203742509e-07
5.132746462e-07
5.702206245e-07
4.444469319e-07
1.149451043e-06
2.687240513e-06
3.966588945e-08
7.977710246e-08
1.094821988e-07
1.342942265e-07
1.560998108e-07
1.758013912e-07
1.939206244e-07
2.107924626e-07
2.26647532e-07
2.416528437e-07
2.559340572e-07
2.695886051e-07
2.826938926e-07
2.953126637e-07
3.074966485e-07
3.192891226e-07
3.307267538e-07
3.418409665e-07
3.526589725e-07
3.632045672e-07
3.734987563e-07
3.83560263e-07
3.934059487e-07
4.030511749e-07
4.125101307e-07
4.217961472e-07
4.309220234e-07
4.399003963e-07
4.487442095e-07
4.574671905e-07
4.660863017e-07
4.746078129e-07
4.831579433e-07
4.910545068e-07
5.026087875e-07
4.960133829e-07
5.656595008e-07
2.734887722e-07
1.13504992e-06
3.135204576e-06
3.97327784e-08
7.991988174e-08
1.096821399e-07
1.345419275e-07
1.563892853e-07
1.761284652e-07
1.942822421e-07
2.111863211e-07
2.270718675e-07
2.421062946e-07
2.564155725e-07
2.70097379e-07
2.832293175e-07
2.958742954e-07
3.080841796e-07
3.199023635e-07
3.313656188e-07
3.425054649e-07
3.533492039e-07
3.63920721e-07
3.742411154e-07
3.843292112e-07
3.942019826e-07
4.038749192e-07
4.133623571e-07
4.22677794e-07
4.318342136e-07
4.408444433e-07
4.497215878e-07
4.584795293e-07
4.671340209e-07
4.757015441e-07
4.842096919e-07
4.926559281e-07
5.015146664e-07
5.060897124e-07
5.415110586e-07
3.433291719e-07
8.534420777e-07
3.465074909e-06
3.972049698e-08
7.989433452e-08
1.096461669e-07
1.344971911e-07
1.563367866e-07
1.760689084e-07
1.942161569e-07
2.111141215e-07
2.269938855e-07
2.420228019e-07
2.563267932e-07
2.70003499e-07
2.8313049e-07
2.95770644e-07
3.079758001e-07
3.197893238e-07
3.312479574e-07
3.423831873e-07
3.53222278e-07
3.637890695e-07
3.741046059e-07
3.841876422e-07
3.940550634e-07
4.037222427e-07
4.132033588e-07
4.225116926e-07
4.316599194e-07
4.406604168e-07
4.495256039e-07
4.582683947e-07
4.669020061e-07
4.754470837e-07
4.838805369e-07
4.924381973e-07
5.005028671e-07
5.071498928e-07
5.366698639e-07
3.544635625e-07
1.051764045e-06
3.745326445e-06
3.971407702e-08
7.988175837e-08
1.096285255e-07
1.344753031e-07
1.563111091e-07
1.760397731e-07
1.941838283e-07
2.11078821e-07
2.269558058e-07
2.419821145e-07
2.562836536e-07
2.699580487e-07
2.830828582e-07
2.957209472e-07
3.079241411e-07
3.197357898e-07
3.311926169e-07
3.423260863e-07
3.531634345e-07
3.637284663e-07
3.740421813e-07
3.841232772e-07
3.939885646e-07
4.036533175e-07
4.131315807e-07
4.224364489e-07
4.315803337e-07
4.405752301e-07
4.494329874e-07
4.581656876e-07
4.667849328e-07
4.753121947e-07
4.836999559e-07
4.92304867e-07
4.999644668e-07
5.065822287e-07
5.373940737e-07
6.206023168e-07
1.528805688e-06
4.017884106e-06
3.970724405e-08
7.986829244e-08
1.096095099e-07
1.344516305e-07
1.562832703e-07
1.760081237e-07
1.94148651e-07
2.110403519e-07
2.26914249e-07
2.41937651e-07
2.562364459e-07
2.699082441e-07
2.830305892e-07
2.956663315e-07
3.078672804e-07
3.196767671e-07
3.31131493e-07
3.422628947e-07
3.530981751e-07
3.636610973e-07
3.739726077e-07
3.840513371e-07
3.939140093e-07
4.035757855e-07
4.130505604e-07
4.223512266e-07
4.314899184e-07
4.404782441e-07
4.493275119e-07
4.580489716e-07
4.666536679e-07
4.751580717e-07
4.835221907e-07
4.921971044e-07
4.985131638e-07
5.124961403e-07
5.244833339e-07
5.177278168e-07
1.350542548e-06
4.2454563e-06
3.97004684e-08
7.985501922e-08
1.095906815e-07
1.344281427e-07
1.562556031e-07
1.759766263e-07
1.941136036e-07
2.11001991e-07
2.26872781e-07
2.418932606e-07
2.561893006e-07
2.698584965e-07
2.829783778e-07
2.9561178e-07
3.078104957e-07
3.196178365e-07
3.310704797e-07
3.421998326e-07
3.530330616e-07
3.635938838e-07
3.739031889e-07
3.839795351e-07
3.938395546e-07
4.034982909e-07
4.129694863e-07
4.222658333e-07
4.313992011e-07
4.403808429e-07
4.492215931e-07
4.579320426e-07
4.665227284e-07
4.750066965e-07
4.833528358e-07
4.920570098e-07
4.971279887e-07
5.221289931e-07
4.692085936e-07
3.645154549e-07
2.317509256e-06
4.48215028e-06
3.969371268e-08
7.984185379e-08
1.095719162e-07
1.344046829e-07
1.562279213e-07
1.759450679e-07
1.940784484e-07
2.109634767e-07
2.268311172e-07
2.418486363e-07
2.561418887e-07
2.698084558e-07
2.829258531e-07
2.955569014e-07
3.07753376e-07
3.195585677e-07
3.310091287e-07
3.421364348e-07
3.52967613e-07
3.63526332e-07
3.738334205e-07
3.839073609e-07
3.937646906e-07
4.034203336e-07
4.128878811e-07
4.221798337e-07
4.313078144e-07
4.402827607e-07
4.491150989e-07
4.578150212e-07
4.66391266e-07
4.748690087e-07
4.831006596e-07
4.92451991e-07
4.933909238e-07
5.387589132e-07
3.649425552e-07
7.381466113e-07
2.987656026e-06
4.723753601e-06
3.968697912e-08
7.982880593e-08
1.09553228e-07
1.343812694e-07
1.562002475e-07
1.759134754e-07
1.940432163e-07
2.109248444e-07
2.267892978e-07
2.418038238e-07
2.560942621e-07
2.697581807e-07
2.828730821e-07
2.955017721e-07
3.076960089e-07
3.19499062e-07
3.309475571e-07
3.42072837e-07
3.529019877e-07
3.634586267e-07
3.737635197e-07
3.838350711e-07
3.936897221e-07
4.033422781e-07
4.128061844e-07
4.220937614e-07
4.312164072e-07
4.401847848e-07
4.490089875e-07
4.576988822e-07
4.662618372e-07
4.74734728e-07
4.828289717e-07
4.932413659e-07
4.861445145e-07
5.704480386e-07
5.502581026e-07
1.202356597e-06
3.653741147e-06
4.975966561e-06
3.968026746e-08
7.981587948e-08
1.095346216e-07
1.343579088e-07
1.561725899e-07
1.758818586e-07
1.940079189e-07
2.10886108e-07
2.267473392e-07
2.417588426e-07
2.560464442e-07
2.697076997e-07
2.82820099e-07
2.954464339e-07
3.076384454e-07
3.194393813e-07
3.308858402e-07
3.42009131e-07
3.52836297e-07
3.633909031e-07
3.736936501e-07
3.837628637e-07
3.936148887e-07
4.032644143e-07
4.127247472e-07
4.220080384e-07
4.311254841e-07
4.400875117e-07
4.489039423e-07
4.575843855e-07
4.661350432e-07
4.746010245e-07
4.826214792e-07
4.932925696e-07
4.861823514e-07
5.55548963e-07
4.906158617e-07
7.599903237e-07
4.091711163e-06
5.230339221e-06
3.96735783e-08
7.980308055e-08
1.095161045e-07
1.343346108e-07
1.561449603e-07
1.758502316e-07
1.939725728e-07
2.108472866e-07
2.267052639e-07
2.417137189e-07
2.559984655e-07
2.696570485e-07
2.827669465e-07
2.953909376e-07
3.075807461e-07
3.193795984e-07
3.308240656e-07
3.419454217e-07
3.527706666e-07
3.633233114e-07
3.736239912e-07
3.836909522e-07
3.93540444e-07
4.031870433e-07
4.126439237e-07
4.219230779e-07
4.310355232e-07
4.39991485e-07
4.48800558e-07
4.574720851e-07
4.660118494e-07
4.74463699e-07
4.825148835e-07
4.924428613e-07
4.923161436e-07
5.328833683e-07
2.591459033e-07
1.335681259e-06
4.530384683e-06
5.484015817e-06
3.966691289e-08
7.979041693e-08
1.094976864e-07
1.343113876e-07
1.561173735e-07
1.758186116e-07
1.939371979e-07
2.10808403e-07
2.266630976e-07
2.416684823e-07
2.559503605e-07
2.696062676e-07
2.827136719e-07
2.953353392e-07
3.075229777e-07
3.193197926e-07
3.307623277e-07
3.418818218e-07
3.527052306e-07
3.632560108e-07
3.735547311e-07
3.836195581e-07
3.934666477e-07
4.031104679e-07
4.12564062e-07
4.218392778e-07
4.309469737e-07
4.398971978e-07
4.486993387e-07
4.573624494e-07
4.658930482e-07
4.743206725e-07
4.824957444e-07
4.913163764e-07
4.967618383e-07
5.137544501e-07
4.960918656e-07
1.683849567e-06
4.926514931e-06
5.737780403e-06
3.96602732e-08
7.977789832e-08
1.094793789e-07
1.342882542e-07
1.560898473e-07
1.757870191e-07
1.939018175e-07
2.107694837e-07
2.266208706e-07
2.416231672e-07
2.559021685e-07
2.695554021e-07
2.826603279e-07
2.952797005e-07
3.07465213e-07
3.192600502e-07
3.307007287e-07
3.418184523e-07
3.526401322e-07
3.631891698e-07
3.734860674e-07
3.835489118e-07
3.93393767e-07
4.030349939e-07
4.124855088e-07
4.217570275e-07
4.308602633e-07
4.398050994e-07
4.486007349e-07
4.572560158e-07
4.657777644e-07
4.741893436e-07
4.8240032e-07
4.908247923e-07
4.987466123e-07
5.028634325e-07
5.324623769e-07
2.013792701e-06
5.295928912e-06
5.99273526e-06
3.965366199e-08
7.976553643e-08
1.094611964e-07
1.342652285e-07
1.560624027e-07
1.757554784e-07
1.93866459e-07
2.107305596e-07
2.265786175e-07
2.415778127e-07
2.558539338e-07
2.695045029e-07
2.826069731e-07
2.952240895e-07
3.074075315e-07
3.192004646e-07
3.306393788e-07
3.41755443e-07
3.525755238e-07
3.631229672e-07
3.734182081e-07
3.834792543e-07
3.933220784e-07
4.029609321e-07
4.124086143e-07
4.216767137e-07
4.307758036e-07
4.397156149e-07
4.485051956e-07
4.571531791e-07
4.656672122e-07
4.740584872e-07
4.823538041e-07
4.900291446e-07
5.022076509e-07
4.892076177e-07
6.14268671e-07
5.963893643e-07
5.65200102e-06
6.248333694e-06
3.964708292e-08
7.97533452e-08
1.094431557e-07
1.342423315e-07
1.560350646e-07
1.757240179e-07
1.938311545e-07
2.106916663e-07
2.265363781e-07
2.415324632e-07
2.558057064e-07
2.694536266e-07
2.825536722e-07
2.95168581e-07
3.073500201e-07
3.191411373e-07
3.305783969e-07
3.416929334e-07
3.525115689e-07
3.630575935e-07
3.733513744e-07
3.834108401e-07
3.932518697e-07
4.028886056e-07
4.123337381e-07
4.215987289e-07
4.306940135e-07
4.396291865e-07
4.484131691e-07
4.570544043e-07
4.655610486e-07
4.739384976e-07
4.822441903e-07
4.898139639e-07
5.035853032e-07
4.819627427e-07
3.368239727e-07
1.008394098e-06
5.998783597e-06
6.504219707e-06
3.964054062e-08
7.974134102e-08
1.094252769e-07
1.342195881e-07
1.560078621e-07
1.756926707e-07
1.93795941e-07
2.10652845e-07
2.26494198e-07
2.414871693e-07
2.557575428e-07
2.694028367e-07
2.825004974e-07
2.951132574e-07
3.072927742e-07
3.190821791e-07
3.305179122e-07
3.416310744e-07
3.524484434e-07
3.629932534e-07
3.732858033e-07
3.833439403e-07
3.931834453e-07
4.028183581e-07
4.122612578e-07
4.215234823e-07
4.306153328e-07
4.395462746e-07
4.483251134e-07
4.569601442e-07
4.654598104e-07
4.73823836e-07
4.821653716e-07
4.894480951e-07
5.039332768e-07
4.798241358e-07
3.619329806e-07
1.301492588e-06
6.330779273e-06
6.760773741e-06
3.963404083e-08
7.972954297e-08
1.094075833e-07
1.341970274e-07
1.559808291e-07
1.756614754e-07
1.937608616e-07
2.106141433e-07
2.264521295e-07
2.414419888e-07
2.557095069e-07
2.693522046e-07
2.824475291e-07
2.950582105e-07
3.072358989e-07
3.190237115e-07
3.304580659e-07
3.415700303e-07
3.523863386e-07
3.629301687e-07
3.732217503e-07
3.832788459e-07
3.931171373e-07
4.027505625e-07
4.121915815e-07
4.21451411e-07
4.305402287e-07
4.39467368e-07
4.482415242e-07
4.56870804e-07
4.65364908e-07
4.737052376e-07
4.822026497e-07
4.881066026e-07
5.112379233e-07
4.399287266e-07
4.48275605e-07
1.615717363e-06
6.652525953e-06
7.018263768e-06
3.962759049e-08
7.971797309e-08
1.09390102e-07
1.341746827e-07
1.559540049e-07
1.756304765e-07
1.937259657e-07
2.105756157e-07
2.264102325e-07
2.413969873e-07
2.556616713e-07
2.693018108e-07
2.823948575e-07
2.950035424e-07
3.071795109e-07
3.189658689e-07
3.303990135e-07
3.415099818e-07
3.523254643e-07
3.628685823e-07
3.731594942e-07
3.832158746e-07
3.930533097e-07
4.026856262e-07
4.121251608e-07
4.213830032e-07
4.30469212e-07
4.393930003e-07
4.48162942e-07
4.567869864e-07
4.652758764e-07
4.735949041e-07
4.822435484e-07
4.867028912e-07
5.18636334e-07
4.127900119e-07
3.633594311e-07
1.893503801e-06
6.964684707e-06
7.27688254e-06
3.962119793e-08
7.970665664e-08
1.093728645e-07
1.341525931e-07
1.559274348e-07
1.755997254e-07
1.936913107e-07
2.105373254e-07
2.263685761e-07
2.413522404e-07
2.556141186e-07
2.692517468e-07
2.823425845e-07
2.949493676e-07
3.071237406e-07
3.189088008e-07
3.303409277e-07
3.414511291e-07
3.522660528e-07
3.62808763e-07
3.730993444e-07
3.831553833e-07
3.929923653e-07
4.026239993e-07
4.120624948e-07
4.21318808e-07
4.304028662e-07
4.393237702e-07
4.480899811e-07
4.567093212e-07
4.651929496e-07
4.734994039e-07
4.822062227e-07
4.860629024e-07
5.222898833e-07
3.767933583e-07
5.005263903e-07
2.179203143e-06
7.266504864e-06
7.536554429e-06
3.961487301e-08
7.969562249e-08
1.093559066e-07
1.341308033e-07
1.559011714e-07
1.755692815e-07
1.936569627e-07
2.104993449e-07
2.263272395e-07
2.413078345e-07
2.555669435e-07
2.692021165e-07
2.822908257e-07
2.948958158e-07
3.070687348e-07
3.188526753e-07
3.302840023e-07
3.413936965e-07
3.522083644e-07
3.627510123e-07
3.730416496e-07
3.830977725e-07
3.929347586e-07
4.025661927e-07
4.120041495e-07
4.212594445e-07
4.303418627e-07
4.392603766e-07
4.480233505e-07
4.566384888e-07
4.651173133e-07
4.734122181e-07
4.821727153e-07
4.855262898e-07
5.242784521e-07
3.646207849e-07
5.432635214e-07
2.483056338e-06
7.557592455e-06
7.797097547e-06
3.960862727e-08
7.968490342e-08
1.093392698e-07
1.341093647e-07
1.558752748e-07
1.755392135e-07
1.936229981e-07
2.104617581e-07
2.262863143e-07
2.412638693e-07
2.555202548e-07
2.691530395e-07
2.822397133e-07
2.948430349e-07
3.070146606e-07
3.187976831e-07
3.302284565e-07
3.413379377e-07
3.521526934e-07
3.626956717e-07
3.729868059e-07
3.830434977e-07
3.928810093e-07
4.025127932e-07
4.119507787e-07
4.212056287e-07
4.302869753e-07
4.39203645e-07
4.479638902e-07
4.56575331e-07
4.650496973e-07
4.733351417e-07
4.821354098e-07
4.850765613e-07
5.261272487e-07
3.453336217e-07
6.632652356e-07
2.787065899e-06
7.837538185e-06
8.058968525e-06
3.960247417e-08
7.967453651e-08
1.093230012e-07
1.340883362e-07
1.558498144e-07
1.755096003e-07
1.935895047e-07
2.104246619e-07
2.262459062e-07
2.412204601e-07
2.55474178e-07
2.691046533e-07
2.82189399e-07
2.947911941e-07
3.06961709e-07
3.187440419e-07
3.301745408e-07
3.412841425e-07
3.520993761e-07
3.626431326e-07
3.729352675e-07
3.829930827e-07
3.928317177e-07
4.02464482e-07
4.119031458e-07
4.21158203e-07
4.302391159e-07
4.391545496e-07
4.479126165e-07
4.565208674e-07
4.649908864e-07
4.732719749e-07
4.820578195e-07
4.851496457e-07
5.235576329e-07
3.695658496e-07
7.716238228e-07
3.136536344e-06
8.105994575e-06
8.322754799e-06
3.959642927e-08
7.966456354e-08
1.093071547e-07
1.340677854e-07
1.558248698e-07
1.754805327e-07
1.935565843e-07
2.103881684e-07
2.262061378e-07
2.4117774e-07
2.554288585e-07
2.690571169e-07
2.821400586e-07
2.947404893e-07
3.069101005e-07
3.186920028e-07
3.301225437e-07
3.412326443e-07
3.520488003e-07
3.62593847e-07
3.728875604e-07
3.829471368e-07
3.927875845e-07
4.024220576e-07
4.118621504e-07
4.211181672e-07
4.301993762e-07
4.391142573e-07
4.478707592e-07
4.564763372e-07
4.649422555e-07
4.732209391e-07
4.819892701e-07
4.849907211e-07
5.249064137e-07
3.61459907e-07
8.140158852e-07
1.010758504e-06
8.375211167e-06
8.587297466e-06
3.95905105e-08
7.965503145e-08
1.092917914e-07
1.340477891e-07
1.558005324e-07
1.754521154e-07
1.935243541e-07
2.103524069e-07
2.261671508e-07
2.41135864e-07
2.553844651e-07
2.690106156e-07
2.820918962e-07
2.946911479e-07
3.068600914e-07
3.186418572e-07
3.300727997e-07
3.411838307e-07
3.520014172e-07
3.62548342e-07
3.728442991e-07
3.82906374e-07
3.927494346e-07
4.023864648e-07
4.118288629e-07
4.210867179e-07
4.301690733e-07
4.390841893e-07
4.47839819e-07
4.564432832e-07
4.649054813e-07
4.731823871e-07
4.819236169e-07
4.849730661e-07
5.250969578e-07
3.624506149e-07
8.377508369e-07
1.42315064e-06
8.643945851e-06
8.851861853e-06
3.958473841e-08
7.964599275e-08
1.092769805e-07
1.340284354e-07
1.557769065e-07
1.754244686e-07
1.934929494e-07
2.103175276e-07
2.261291101e-07
2.410950121e-07
2.553411948e-07
2.689653651e-07
2.820451502e-07
2.946434356e-07
3.068119808e-07
3.185939452e-07
3.300256994e-07
3.411381547e-07
3.519577557e-07
3.62507236e-07
3.728062071e-07
3.828716377e-07
3.927182458e-07
4.023588287e-07
4.118045652e-07
4.210652975e-07
4.301498063e-07
4.390660877e-07
4.478216532e-07
4.564236191e-07
4.648828444e-07
4.731542862e-07
4.819003877e-07
4.848018408e-07
5.261193275e-07
3.551445725e-07
8.818229522e-07
1.816880488e-06
8.906111721e-06
9.116541227e-06
3.957913651e-08
7.963750602e-08
1.092628006e-07
1.340098238e-07
1.557541116e-07
1.753977304e-07
1.934625261e-07
2.10283704e-07
2.260922068e-07
2.41055394e-07
2.552992772e-07
2.68921618e-07
2.820001e-07
2.94597664e-07
3.067661195e-07
3.185486658e-07
3.299817022e-07
3.410961509e-07
3.519184406e-07
3.624712601e-07
3.727741406e-07
3.828439297e-07
3.92695184e-07
4.023404972e-07
4.11790801e-07
4.210556537e-07
4.301435262e-07
4.39062095e-07
4.478185701e-07
4.564197579e-07
4.648770615e-07
4.73135908e-07
4.819581471e-07
4.841656882e-07
5.295085517e-07
3.429521377e-07
9.409009785e-07
2.167921654e-06
9.160802506e-06
9.381490592e-06
3.95737314e-08
7.962963593e-08
1.092493398e-07
1.339920678e-07
1.557322839e-07
1.753720588e-07
1.934332637e-07
2.102511364e-07
2.260566626e-07
2.410172537e-07
2.552589807e-07
2.6887967e-07
2.819570734e-07
2.945541997e-07
3.067229206e-07
3.185064905e-07
3.29941354e-07
3.410584543e-07
3.51884214e-07
3.624412837e-07
3.727491207e-07
3.82824448e-07
3.926816485e-07
4.023330933e-07
4.117894359e-07
4.210599082e-07
4.301526149e-07
4.390748456e-07
4.478334303e-07
4.564347929e-07
4.648905341e-07
4.731396828e-07
4.820122044e-07
4.837002024e-07
5.325040749e-07
3.302498549e-07
1.019972953e-06
2.513540686e-06
9.408362134e-06
9.647062622e-06
3.956855245e-08
7.962245256e-08
1.092366968e-07
1.339752947e-07
1.55711578e-07
1.753476346e-07
1.934053683e-07
2.102200564e-07
2.260227351e-07
2.409808763e-07
2.552206202e-07
2.688398698e-07
2.819164585e-07
2.945134778e-07
3.066828761e-07
3.184679855e-07
3.299053086e-07
3.410258234e-07
3.518559616e-07
3.624183478e-07
3.727323722e-07
3.828146336e-07
3.926793271e-07
4.02338579e-07
4.118027315e-07
4.210806403e-07
4.301799803e-07
4.391075738e-07
4.478697743e-07
4.564725048e-07
4.649275962e-07
4.731650757e-07
4.821141278e-07
4.830491222e-07
5.366213973e-07
3.109041053e-07
1.470516746e-07
2.851009714e-06
9.648035441e-06
9.913490311e-06
3.956363341e-08
7.961603605e-08
1.092249843e-07
1.339596514e-07
1.556921724e-07
1.753246677e-07
1.933790808e-07
2.101907361e-07
2.259907283e-07
2.409465995e-07
2.551845706e-07
2.688026345e-07
2.818787216e-07
2.944760211e-07
3.066465813e-07
3.184338306e-07
3.298743461e-07
3.409991636e-07
3.518347442e-07
3.624037018e-07
3.727253674e-07
3.828162227e-07
3.92690264e-07
4.02359343e-07
4.118334553e-07
4.211210235e-07
4.302292159e-07
4.391642911e-07
4.479320084e-07
4.565376535e-07
4.649932465e-07
4.732182282e-07
4.822559082e-07
4.823399861e-07
5.411852445e-07
2.586728027e-07
4.255764744e-07
3.189579138e-06
9.879030202e-06
1.01802025e-05
3.955902647e-08
7.961050082e-08
1.092143469e-07
1.339453173e-07
1.556742817e-07
1.753034081e-07
1.933546876e-07
2.101634992e-07
2.259610045e-07
2.409148262e-07
2.551512785e-07
2.6876846e-07
2.818444166e-07
2.944424498e-07
3.066147384e-07
3.184048228e-07
3.298493849e-07
3.409795488e-07
3.518218279e-07
3.62398844e-07
3.727298827e-07
3.828313188e-07
3.927169491e-07
4.023983232e-07
4.118850447e-07
4.211850365e-07
4.30304863e-07
4.392500953e-07
4.480257502e-07
4.566363244e-07
4.65093835e-07
4.733072988e-07
4.824293381e-07
4.817120488e-07
5.452160668e-07
2.063595579e-07
5.853614742e-07
3.49144181e-06
1.010116644e-05
1.044655932e-05
3.955482299e-08
7.960597876e-08
1.092049604e-07
1.339325e-07
1.556581488e-07
1.752841365e-07
1.933325088e-07
2.101387064e-07
2.259339673e-07
2.408860054e-07
2.551212423e-07
2.687379007e-07
2.81814161e-07
2.944134656e-07
3.065881457e-07
3.183818861e-07
3.29831507e-07
3.409682541e-07
3.518187264e-07
3.624055813e-07
3.727480794e-07
3.828624962e-07
3.927624418e-07
4.02459148e-07
4.119617702e-07
4.212776603e-07
4.304126641e-07
4.393715073e-07
4.481582698e-07
4.567764344e-07
4.652379557e-07
4.734393893e-07
4.826611522e-07
4.810211959e-07
5.497194763e-07
1.310340532e-07
7.577916469e-07
3.842352237e-06
1.031167851e-05
1.071395843e-05
3.955111897e-08
7.960238881e-08
1.091969354e-07
1.339213634e-07
1.556439874e-07
1.75267113e-07
1.933128494e-07
2.101167089e-07
2.259100172e-07
2.408605943e-07
2.550949869e-07
2.687115596e-07
2.817886428e-07
2.943898657e-07
3.065677378e-07
3.183661244e-07
3.298220196e-07
3.409668312e-07
3.518272848e-07
3.624261172e-07
3.727825978e-07
3.829129163e-07
3.928305062e-07
4.025462753e-07
4.120688833e-07
4.214050319e-07
4.305597315e-07
4.395366868e-07
4.483388033e-07
4.569682323e-07
4.654367204e-07
4.736264942e-07
4.829519821e-07
4.80487258e-07
5.528142013e-07
5.405243006e-08
9.149502495e-07
1.45011546e-06
1.051620402e-05
1.098400638e-05
3.954798456e-08
7.959944571e-08
1.09190308e-07
1.339120289e-07
1.556319968e-07
1.752526062e-07
1.932960435e-07
2.100979064e-07
2.258896222e-07
2.408391338e-07
2.550731343e-07
2.686901555e-07
2.817687101e-07
2.943726406e-07
3.065546739e-07
3.18358899e-07
3.298225357e-07
3.409771992e-07
3.518497826e-07
3.624631622e-07
3.728366704e-07
3.829864512e-07
3.929257707e-07
4.026652146e-07
4.12212914e-07
4.215748172e-07
4.307549676e-07
4.397558574e-07
4.485789597e-07
4.572247456e-07
4.657042779e-07
4.738881492e-07
4.832495173e-07
4.810236994e-07
5.474156657e-07
1.942089504e-07
9.4427253e-07
1.615190037e-06
1.073003583e-05
1.125607078e-05
3.954559407e-08
7.959762934e-08
1.091853701e-07
1.339047974e-07
1.556225286e-07
1.752410343e-07
1.932825833e-07
2.100828694e-07
2.258734357e-07
2.40822365e-07
2.550565178e-07
2.686746208e-07
2.817554194e-07
2.943630023e-07
3.065503591e-07
3.183618522e-07
3.298349913e-07
3.410016556e-07
3.518889728e-07
3.625200347e-07
3.729142913e-07
3.83087905e-07
3.930540111e-07
4.028228912e-07
4.124021224e-07
4.217967956e-07
4.31009817e-07
4.400422241e-07
4.488937409e-07
4.575627554e-07
4.660593973e-07
4.742410213e-07
4.836300219e-07
4.819021009e-07
5.399405488e-07
2.862587149e-07
9.927380639e-07
1.936113408e-06
1.09394927e-05
1.152982268e-05
3.954396201e-08
7.959723273e-08
1.091824274e-07
1.33900047e-07
1.556160239e-07
1.752329113e-07
1.932730659e-07
2.100722884e-07
2.258622518e-07
2.408111961e-07
2.550461682e-07
2.686661125e-07
2.817500469e-07
2.943623632e-07
3.065563853e-07
3.183768388e-07
3.29861602e-07
3.410428801e-07
3.519481319e-07
3.626007457e-07
3.730203574e-07
3.83223239e-07
3.932224598e-07
4.030280239e-07
4.126469494e-07
4.220834009e-07
4.313389522e-07
4.40412902e-07
4.493028171e-07
4.580044545e-07
4.6652677e-07
4.747068291e-07
4.842496389e-07
4.809077548e-07
5.52581241e-07
5.573544979e-08
1.026552008e-06
2.273238427e-06
1.114396858e-05
1.180534829e-05
3.954314786e-08
7.95984537e-08
1.091817405e-07
1.338981212e-07
1.556129001e-07
1.752287322e-07
1.932680739e-07
2.100668445e-07
2.258568647e-07
2.408065557e-07
2.550431811e-07
2.686659422e-07
2.817541525e-07
2.943725397e-07
3.065748246e-07
3.184062033e-07
3.299050492e-07
3.411040534e-07
3.520311525e-07
3.627100904e-07
3.73160806e-07
3.833997845e-07
3.93440112e-07
4.032915755e-07
4.129606593e-07
4.224505466e-07
4.317612815e-07
4.408900983e-07
4.49831932e-07
4.585793041e-07
4.671381216e-07
4.753505635e-07
4.8461857e-07
4.856239783e-07
5.200280542e-07
3.991832148e-07
1.110135935e-06
2.571861393e-06
1.134253033e-05
1.208306071e-05
3.954314909e-08
7.960119744e-08
1.091834025e-07
1.338992378e-07
1.556134904e-07
1.75228941e-07
1.932681657e-07
2.10067221e-07
2.258580963e-07
2.408094211e-07
2.550487141e-07
2.686754888e-07
2.817694175e-07
2.943956347e-07
3.066083156e-07
3.184531519e-07
3.299690676e-07
3.411894448e-07
3.521429497e-07
3.62853922e-07
3.733428347e-07
3.83626497e-07
3.9371812e-07
4.036273583e-07
4.133601875e-07
4.22918771e-07
4.3230146e-07
4.415030399e-07
4.505152456e-07
4.593265367e-07
4.679408633e-07
4.761622565e-07
4.857789727e-07
4.836928327e-07
5.366243853e-07
3.348522304e-07
1.184615413e-06
2.900915735e-06
1.1535592e-05
1.23632399e-05
3.954411345e-08
7.960568941e-08
1.09187701e-07
1.339037663e-07
1.556182649e-07
1.752341211e-07
1.932740518e-07
2.100742732e-07
2.258669685e-07
2.408210064e-07
2.550642013e-07
2.686964265e-07
2.817977831e-07
2.944339146e-07
3.066595805e-07
3.185211092e-07
3.300580973e-07
3.413046441e-07
3.522902062e-07
3.630400939e-07
3.73575737e-07
3.83914639e-07
3.940704305e-07
4.040527684e-07
4.138671458e-07
4.235146661e-07
4.329918192e-07
4.422905155e-07
4.513986065e-07
4.602996997e-07
4.689931145e-07
4.772678961e-07
4.869858932e-07
4.846885846e-07
5.323321035e-07
4.434487492e-07
1.286985548e-06
3.221344393e-06
1.172222952e-05
1.26460829e-05
3.954615037e-08
7.961206301e-08
1.091948941e-07
1.339120674e-07
1.556277007e-07
1.752448792e-07
1.932864842e-07
2.100889187e-07
2.258845919e-07
2.408426523e-07
2.55091261e-07
2.687307137e-07
2.818416193e-07
2.944902234e-07
3.067319878e-07
3.186140517e-07
3.301769368e-07
3.414557267e-07
3.524808635e-07
3.632787075e-07
3.738718508e-07
3.84279094e-07
3.945151515e-07
4.045901826e-07
4.14509435e-07
4.242729302e-07
4.338750881e-07
4.433044674e-07
4.52544172e-07
4.615721418e-07
4.703785675e-07
4.787907916e-07
4.880944545e-07
4.897254021e-07
5.24700083e-07
3.961750537e-07
1.397595533e-06
3.545251433e-06
1.190079514e-05
1.293212082e-05
3.954938373e-08
7.962046489e-08
1.092052582e-07
1.33924526e-07
1.556423089e-07
1.752618723e-07
1.933062889e-07
2.101121803e-07
2.259122206e-07
2.40875887e-07
2.551317485e-07
2.687806022e-07
2.819036666e-07
2.945679179e-07
3.068296778e-07
3.1873708e-07
3.303317822e-07
3.416501544e-07
3.527240756e-07
3.635814159e-07
3.742462818e-07
3.847390623e-07
3.950761505e-07
4.052691525e-07
4.153238534e-07
4.252395313e-07
4.350084585e-07
4.446152578e-07
4.540371301e-07
4.63244963e-07
4.722225663e-07
4.807813975e-07
4.903293621e-07
4.906784024e-07
5.338214911e-07
4.246605377e-07
1.619597356e-06
3.82310108e-06
1.206851697e-05
1.322209612e-05
3.955379309e-08
7.96311301e-08
1.092190577e-07
1.339415316e-07
1.556626175e-07
1.752857906e-07
1.933343481e-07
2.101451685e-07
2.259512385e-07
2.409224237e-07
2.551877771e-07
2.688486951e-07
2.819871304e-07
2.946709471e-07
3.069575252e-07
3.188962427e-07
3.305302004e-07
3.418974161e-07
3.530316331e-07
3.639628236e-07
3.747174031e-07
3.853181657e-07
3.957839389e-07
4.061286309e-07
4.163596652e-07
4.26476616e-07
4.364700463e-07
4.463200793e-07
4.559963807e-07
4.654605741e-07
4.746980581e-07
4.834079853e-07
4.940179723e-07
4.886213944e-07
5.648929812e-07
5.142937984e-07
1.452109726e-06
4.027718512e-06
1.222566362e-05
1.351634503e-05
3.955936787e-08
7.964424576e-08
1.092365335e-07
1.339634573e-07
1.5568915e-07
1.753173377e-07
1.933715836e-07
2.10189071e-07
2.260031572e-07
2.409841693e-07
2.552617394e-07
2.689379853e-07
2.820957506e-07
2.948039853e-07
3.071213778e-07
3.190988637e-07
3.30781376e-07
3.422090677e-07
3.534181612e-07
3.644414913e-07
3.753087459e-07
3.860464177e-07
3.966773603e-07
4.07219348e-07
4.176828673e-07
4.280693831e-07
4.38369064e-07
4.485573199e-07
4.585938865e-07
4.684300113e-07
4.780339769e-07
4.872241889e-07
4.972934373e-07
5.001005753e-07
5.305557581e-07
4.527992441e-07
2.848460986e-07
4.329666098e-06
1.236933941e-05
1.381420226e-05
3.956617427e-08
7.965993864e-08
1.092579144e-07
1.339906571e-07
1.557224167e-07
1.753572196e-07
1.934189456e-07
2.102451422e-07
2.260696104e-07
2.410632312e-07
2.553563313e-07
2.690519027e-07
2.822338784e-07
2.949725473e-07
3.073282246e-07
3.19353804e-07
3.310965518e-07
3.425993864e-07
3.539018189e-07
3.650406118e-07
3.760501294e-07
3.869624241e-07
3.978068789e-07
4.086080027e-07
4.193821027e-07
4.301355891e-07
4.408614295e-07
4.515314943e-07
4.620932453e-07
4.724860602e-07
4.826445761e-07
4.926928452e-07
5.016864635e-07
5.137157202e-07
5.283437183e-07
3.90744072e-07
7.18279166e-07
4.605275582e-06
1.24921107e-05
1.411541935e-05
3.957426406e-08
7.96783082e-08
1.092833945e-07
1.340234472e-07
1.557628954e-07
1.754061242e-07
1.93477393e-07
2.103146874e-07
2.261523445e-07
2.411619159e-07
2.554745723e-07
2.691943685e-07
2.824065734e-07
2.951831407e-07
3.075864269e-07
3.196717984e-07
3.314894963e-07
3.430860195e-07
3.545052413e-07
3.657893052e-07
3.769792529e-07
3.881155459e-07
3.992381408e-07
4.103831166e-07
4.215779735e-07
4.328412678e-07
4.441776568e-07
4.555602759e-07
4.669189657e-07
4.78169644e-07
4.892363481e-07
5.00418686e-07
5.098668477e-07
5.255180534e-07
5.598437025e-07
2.497034268e-07
1.852774979e-06
5.131948006e-06
1.260723406e-05
1.442133819e-05
3.958366745e-08
7.96994088e-08
1.093131093e-07
1.340620789e-07
1.558110014e-07
1.754646917e-07
1.935478659e-07
2.103990404e-07
2.262532043e-07
2.412827274e-07
2.556198174e-07
2.693698405e-07
2.826197142e-07
2.954434582e-07
3.079060071e-07
3.200658815e-07
3.319771183e-07
3.436908258e-07
3.552566397e-07
3.667240578e-07
3.781436374e-07
3.895688783e-07
4.010571692e-07
4.12665301e-07
4.24443506e-07
4.364387059e-07
4.486814263e-07
4.611256749e-07
4.73618563e-07
4.859849714e-07
4.9826722e-07
5.103254714e-07
5.244548056e-07
5.353804968e-07