/*--------------------------------*- C++ -*----------------------------------*\
| =========                 |                                                 |
| \\      /  F ield         | OpenFOAM: The Open Source CFD Toolbox           |
|  \\    /   O peration     | Version:  v1912                                 |
|   \\  /    A nd           | Website:  www.openfoam.com                      |
|    \\/     M anipulation  |                                                 |
\*---------------------------------------------------------------------------*/
FoamFile
{
    version     2.0;
    format      ascii;
    class       volScalarField;
    location    "0.6";
    object      alpha.gas;
}
// * * * * * * * * * * * * * * * * * * * * * * * * * * * * * * * * * * * * * //

dimensions      [0 0 0 0 0 0 0];


internalField   nonuniform List<scalar> 
4800
(
1.953762233e-181
9.659361616e-182
7.622323018e-182
7.241387071e-182
7.451364964e-182
8.624746596e-182
1.076375124e-181
1.433121506e-181
2.022415155e-181
3.012827336e-181
4.707721296e-181
7.675680542e-181
6.346023892e-181
5.226104094e-175
3.598694366e-175
3.912921352e-175
8.895674862e-172
3.180345553e-168
1.04003455e-164
3.118858893e-161
8.303628601e-158
1.917595395e-154
1.621073315e-151
8.21526363e-149
2.374812154e-153
1.25691515e-136
1.808687856e-137
4.457108845e-140
2.005691638e-107
4.891713642e-106
0
1.92962376e-79
1.857656909e-78
1.869621786e-78
1.653384979e-63
9.521384871e-80
5.593225993e-51
2.967624699e-67
4.265093492e-05
0.01057154654
1.024788071e-178
4.995268483e-179
3.918802413e-179
3.700542198e-179
3.78854032e-179
4.353333754e-179
5.388561099e-179
7.108017881e-179
9.926902502e-179
1.461919512e-178
2.256075609e-178
3.62978499e-178
3.122858065e-178
2.171789071e-172
1.536647867e-172
9.21872308e-173
7.286839293e-170
2.308207194e-166
6.525869022e-163
1.663652374e-159
3.700815327e-156
7.417232417e-153
2.831524514e-150
1.534236385e-147
2.378720205e-153
1.088856225e-133
3.419938554e-134
5.799363308e-149
0
8.104103027e-102
0
1.109263073e-77
1.198153936e-96
2.824461768e-63
1.569433205e-61
9.607455947e-80
7.05305092e-49
1.729870593e-67
0.0001801643284
0.01512747328
2.542897432e-176
1.227886349e-176
9.579364116e-177
8.991047985e-177
9.157218466e-177
1.044440698e-176
1.281964506e-176
1.674951218e-176
2.314335614e-176
3.368248753e-176
5.131825737e-176
8.14397155e-176
7.279393723e-176
4.236065472e-170
3.090766372e-170
1.564481623e-170
3.071461081e-168
8.779869262e-165
2.151984805e-161
4.503101623e-158
7.457228776e-155
1.19986568e-151
1.222154502e-149
1.577278886e-146
2.377419159e-153
8.609374338e-133
2.817838386e-129
3.865326727e-130
0
6.901431751e-98
6.244281995e-117
4.574491083e-76
7.566753326e-95
8.313833232e-60
7.856161423e-59
2.090108154e-78
1.175521336e-46
1.932873563e-67
0.0004170845349
0.02048235321
4.05439329e-174
1.942491642e-174
1.507345738e-174
1.406169734e-174
1.424653552e-174
1.61271032e-174
1.962615051e-174
2.539520345e-174
3.471131062e-174
4.991646072e-174
7.507001427e-174
1.174810479e-173
1.089359766e-173
5.250439194e-168
3.972111732e-168
1.958518118e-168
8.687495208e-167
2.315313096e-163
5.144622473e-160
9.120928772e-157
1.005881618e-153
1.028030876e-150
1.160083993e-151
3.846317677e-143
1.099291765e-143
1.405101989e-151
4.915375498e-124
5.19479519e-125
0
4.861899003e-95
2.945861949e-114
5.743854492e-75
4.53103313e-94
2.514394614e-57
8.027042859e-57
0
5.905461844e-45
2.183627908e-68
0.0007258623973
0.02550898462
4.688788095e-172
2.230560389e-172
1.721845601e-172
1.596467885e-172
1.60888667e-172
1.807434775e-172
2.180619387e-172
2.794056785e-172
3.777419027e-172
5.366609342e-172
7.965374921e-172
1.229018793e-171
1.180186653e-171
4.658159239e-166
3.677604555e-166
1.833152941e-166
1.786226025e-165
4.482989716e-162
9.503752746e-159
1.550711839e-155
1.191754025e-152
4.58873493e-150
9.562716122e-152
1.747772481e-140
3.967790827e-141
5.331806288e-158
2.346336507e-120
2.477915338e-121
0
1.881380235e-92
3.562159574e-112
3.36518652e-74
1.095460367e-93
1.855308929e-55
2.540692157e-55
0
8.278691291e-44
1.800086117e-65
0.001076398641
0.02993992522
4.198428702e-170
1.983936581e-170
1.52356356e-170
1.403961416e-170
1.407308714e-170
1.568846463e-170
1.876236158e-170
2.380284689e-170
3.182533476e-170
4.466267124e-170
6.541246958e-170
9.948969244e-170
9.873607606e-170
3.151249565e-164
2.61612847e-164
1.330844511e-164
2.939424958e-164
6.418709557e-161
1.339940196e-157
2.145979546e-154
1.363267979e-151
8.522504856e-150
9.557185842e-152
4.853691749e-139
1.906671677e-139
2.175772912e-159
2.175518452e-118
3.67541491e-119
1.779787077e-138
2.602541218e-89
0
1.030197658e-73
0
3.191893589e-54
2.819504003e-54
1.158175051e-72
1.871818863e-43
4.749347728e-62
0.001434040746
0.0337982522
3.031229643e-168
1.423122e-168
1.087271406e-168
9.957393306e-169
9.927076273e-169
1.098063399e-168
1.301580275e-168
1.634705449e-168
2.161243553e-168
2.995499882e-168
4.328255937e-168
6.487922603e-168
6.63897768e-168
1.689057868e-162
1.487848231e-162
7.744630409e-163
5.140068455e-163
6.808037825e-160
1.42079802e-156
2.299711494e-153
1.330761788e-150
1.687888423e-150
1.029686664e-151
1.031417942e-138
7.276844749e-136
6.846772883e-152
1.136236945e-117
1.810429579e-117
7.471970109e-138
7.255288021e-87
0
1.789168992e-73
4.318998838e-92
1.64349984e-53
1.099180702e-53
8.330224381e-72
1.876407522e-43
0
0.001766637901
0.03725975188
1.81367038e-166
8.460955372e-167
6.43100419e-167
5.853027274e-167
5.803170594e-167
6.368566127e-167
7.481007692e-167
9.300085019e-167
1.215614942e-166
1.663687536e-166
2.3711082e-166
3.502064844e-166
3.68546326e-166
7.353547662e-161
6.947325246e-161
3.703192873e-161
1.375790733e-161
5.375482882e-159
1.130492935e-155
1.87386318e-152
9.954598161e-150
3.57221257e-150
1.182227505e-146
3.360660773e-150
1.294961363e-132
7.593511284e-133
0
4.690250893e-113
6.392769107e-133
4.59120135e-85
2.207604757e-103
2.910478398e-73
1.328754135e-92
1.835462265e-53
1.579800308e-53
4.258260252e-72
1.873351687e-43
7.787215071e-65
0.002248601099
0.04033844791
9.170381402e-165
4.251275827e-165
3.21465985e-165
2.907412842e-165
2.866553083e-165
3.120702026e-165
3.632219998e-165
4.468637295e-165
5.773517113e-165
7.800654255e-165
1.096339804e-164
1.595141706e-164
1.721496251e-164
2.643842382e-159
2.713695964e-159
1.481449953e-159
4.745257958e-160
3.196742155e-158
6.775014837e-155
1.161215068e-151
5.551604688e-149
1.355923254e-149
2.785892437e-145
4.564406507e-158
2.421116551e-130
2.047023303e-130
2.443993937e-149
1.223781638e-108
9.999117023e-129
1.018814243e-83
0
8.561788546e-73
0
1.833763795e-53
1.543079051e-53
4.265516578e-75
1.870432619e-43
0
0.002770933658
0.04308634861
3.97524812e-163
1.831406931e-163
1.37765648e-163
1.238083918e-163
1.213720289e-163
1.310565873e-163
1.511093631e-163
1.839386923e-163
2.348509478e-163
3.131788648e-163
4.339427869e-163
6.218242901e-163
6.860909477e-163
7.935838039e-158
8.987636411e-158
5.023637567e-158
1.561623432e-158
1.505448885e-157
3.069712471e-154
5.471503979e-151
2.31577057e-148
2.406733968e-149
1.12893011e-143
7.4374006e-159
9.79461202e-129
8.01035121e-129
0
2.541178788e-104
0
9.939351137e-83
2.289027368e-101
1.362104597e-72
4.597705069e-93
1.832466858e-53
1.306180688e-53
1.709896684e-72
1.867705102e-43
1.467076742e-64
0.00332180714
0.04554158086
1.493497287e-161
6.837787927e-162
5.116614513e-162
4.568605471e-162
4.452421519e-162
4.767588416e-162
5.444251614e-162
6.555207969e-162
8.268871331e-162
1.088040027e-161
1.485931379e-161
2.096598732e-161
2.357294558e-161
2.001912258e-156
2.548509527e-156
1.457659084e-156
4.487419678e-157
7.191687035e-157
1.058527631e-153
1.939748467e-150
7.403153159e-148
2.743939762e-149
1.883946819e-142
4.585375514e-158
1.416636642e-127
1.025573593e-127
3.670700146e-147
7.592328339e-101
7.992124779e-120
4.225598919e-82
3.785181811e-101
1.362683655e-72
0
1.831076842e-53
8.715479023e-54
1.222943815e-65
1.558209243e-43
0
0.003862200165
0.04776329079
4.903324279e-160
2.230845748e-160
1.660341344e-160
1.472738661e-160
1.426555403e-160
1.514427007e-160
1.712274618e-160
2.038757814e-160
2.540083057e-160
3.297117516e-160
4.437008262e-160
6.162930402e-160
7.036534292e-160
4.257190049e-155
6.229117056e-155
3.642421686e-155
1.11386468e-155
6.10481877e-156
2.888258266e-153
5.030037722e-150
1.965979126e-147
2.874953977e-149
1.395567941e-141
7.667275631e-159
8.138120932e-127
5.926750523e-127
1.607055737e-146
2.721882012e-98
0
4.758663526e-82
0
1.362564629e-72
2.71626882e-91
1.729309495e-53
0
8.367732023e-47
2.038890374e-45
0
0.004397719047
0.04979751108
1.415545117e-158
6.398930484e-159
4.736050031e-159
4.172385996e-159
4.01587199e-159
4.225473289e-159
4.728856003e-159
5.566320396e-159
6.847928253e-159
8.766551889e-159
1.16218194e-158
1.588698279e-158
1.835190711e-158
7.629945991e-154
1.318353843e-153
7.867457572e-154
2.392329553e-154
8.739257119e-155
7.714397266e-153
8.966912865e-150
3.651217428e-147
3.039519239e-149
2.602907271e-141
4.643468211e-158
1.843346991e-126
1.761915935e-126
0
1.847382124e-96
1.569429519e-115
4.758817783e-82
0
1.362343455e-72
0
1.170103041e-53
0
8.400931102e-47
0
9.830716376e-07
0.004927636339
0.05168205917
3.609705815e-157
1.620835231e-157
1.192652228e-157
1.04330776e-157
9.974775956e-158
1.039935961e-157
1.15164091e-157
1.339787145e-157
1.627172325e-157
2.053934372e-157
2.681629015e-157
3.606613491e-157
4.198573104e-157
1.148239844e-152
2.423659446e-152
1.470554523e-152
4.453481056e-153
1.347117319e-153
3.33834387e-152
9.723744961e-150
3.634491399e-147
3.328726403e-149
2.605384671e-141
7.543813232e-159
2.162583806e-126
2.291160049e-126
0
3.674804664e-95
0
4.759375739e-82
0
1.208067095e-72
1.180151166e-91
4.256912659e-54
0
8.368872229e-47
0
4.256648928e-06
0.005452512752
0.05344321848
8.155446785e-156
3.63585561e-156
2.658893572e-156
2.308921236e-156
2.192064772e-156
2.26385116e-156
2.48017476e-156
2.851112264e-156
3.417641887e-156
4.252587061e-156
5.466082451e-156
7.229760504e-156
8.446586443e-156
1.439692904e-151
3.880922952e-151
2.376838471e-151
7.186026678e-152
1.93291741e-152
2.212409803e-151
5.920299821e-150
2.573066623e-147
2.194683789e-148
2.446974131e-141
4.868982018e-147
2.15481943e-126
2.291225389e-126
3.742555969e-145
3.004113258e-94
1.824743375e-113
4.679612896e-82
4.403141256e-102
6.752106923e-73
0
6.177805526e-55
0
3.764083078e-47
0
9.81240419e-06
0.005973289457
0.0550995528
1.635080841e-154
7.233321197e-155
5.255247486e-155
4.52899408e-155
4.268511119e-155
4.365915315e-155
4.731045551e-155
5.373070357e-155
6.355393678e-155
7.79267332e-155
9.855940259e-155
1.281268053e-154
1.495797131e-154
1.484086597e-150
5.420568007e-150
3.321540511e-150
1.003556286e-150
2.498708305e-151
1.43896148e-150
8.173519366e-150
2.767418483e-147
3.0727622e-145
3.675676693e-157
2.658165159e-128
2.030779183e-126
2.129995675e-126
0
1.07486826e-93
0
3.58616555e-82
4.149632802e-102
1.69025122e-73
1.635463598e-92
2.523617644e-56
2.980313418e-75
4.48210575e-48
8.712304006e-68
1.715745597e-05
0.006490427272
0.05666480758
2.909502475e-153
1.276415682e-153
9.210396521e-154
7.876276606e-154
7.36789197e-154
7.462681687e-154
7.997592358e-154
8.971189678e-154
1.046645203e-153
1.263879698e-153
1.571801544e-153
2.006963962e-153
2.331175262e-153
1.230774017e-149
6.550561553e-149
4.034324537e-149
1.209100433e-149
2.863622671e-150
8.101470247e-150
2.253051389e-149
1.828422625e-146
1.553859921e-144
2.258112358e-162
1.15013387e-125
1.293923034e-125
5.258895957e-126
6.4133501e-145
1.274338873e-93
0
1.800971786e-82
2.811025897e-101
1.139530951e-74
2.896621697e-84
1.949600951e-58
3.12254328e-85
8.888875971e-50
0
2.592326974e-05
0.007006603197
0.05814994655
4.589581923e-152
1.995880644e-152
1.430192811e-152
1.213569376e-152
1.126637821e-152
1.129875593e-152
1.197158432e-152
1.325690058e-152
1.524381215e-152
1.81125752e-152
2.213131051e-152
2.774084678e-152
3.193106935e-152
7.915733309e-149
6.592022354e-148
4.292437286e-148
1.245901904e-148
2.86370241e-149
3.944948124e-149
9.279837547e-150
1.3096726e-142
1.214885091e-143
0
6.843641493e-124
6.939817154e-124
2.180177168e-124
7.670883058e-143
1.274634565e-93
0
6.872601729e-83
4.896903353e-84
2.048039476e-94
7.371789831e-66
1.34362608e-68
1.144896661e-55
1.931168785e-52
8.965470535e-77
3.604191249e-05
0.007524948405
0.05956490781
6.403219586e-151
2.760128642e-151
1.964179575e-151
1.653800595e-151
1.523336827e-151
1.511977556e-151
1.58268671e-151
1.72834773e-151
1.956522281e-151
2.285293716e-151
2.742317309e-151
3.374630214e-151
3.83532244e-151
3.676674385e-148
5.117327891e-147
3.88883262e-147
1.074135818e-147
2.446058846e-148
1.69696949e-148
1.448159363e-155
1.326030222e-137
6.810398709e-139
1.950591211e-158
1.151586201e-122
1.179687357e-122
4.041989207e-123
0
1.274536553e-93
0
3.41025963e-83
2.086176651e-83
0
7.39741447e-66
0
1.538054863e-55
1.579174372e-55
3.380972245e-77
4.755625663e-05
0.008045607788
0.0609178592
7.877063781e-150
3.366323834e-150
2.378733084e-150
1.98656951e-150
1.814000873e-150
1.779724064e-150
1.837641705e-150
1.975969823e-150
2.199842886e-150
2.525573254e-150
2.978502767e-150
3.601252497e-150
4.024365052e-150
1.001745698e-147
3.774991597e-146
2.79742746e-146
7.991174702e-147
1.785544381e-147
6.723303407e-148
5.42916419e-160
1.417858304e-132
4.842650067e-134
6.426463086e-154
8.670060931e-122
8.205568884e-122
2.805914661e-122
3.201369792e-141
1.105637785e-93
1.047971515e-112
2.021489004e-83
2.083301101e-83
1.930914367e-102
4.302311795e-66
0
1.19785494e-55
3.82843981e-56
2.790677978e-78
6.049116731e-05
0.008566918368
0.06221482723
8.51251039e-149
3.604144069e-149
2.525690576e-149
2.088653377e-149
1.886661057e-149
1.825444325e-149
1.85566594e-149
1.963283881e-149
2.151541243e-149
2.433022408e-149
2.825487596e-149
3.356245055e-149
3.658229432e-149
3.083139389e-151
1.113048371e-141
6.240680886e-143
1.147121767e-145
1.455462025e-146
2.651925582e-147
2.814162734e-164
1.581614717e-127
3.157300877e-129
0
4.273735691e-121
2.215202577e-120
1.308666999e-121
0
6.197883823e-94
0
1.497544924e-83
1.233084614e-83
8.061056899e-104
7.30911663e-67
3.703978939e-87
3.069998533e-56
7.389908704e-57
1.797924872e-79
7.482121925e-05
0.009087416398
0.06345971829
8.031308918e-148
3.35368357e-148
2.321623419e-148
1.8941262e-148
1.687030211e-148
1.606736856e-148
1.609468764e-148
1.682316732e-148
1.824894641e-148
2.040124756e-148
2.330576691e-148
2.701065803e-148
2.821467463e-148
1.965639306e-155
5.718771708e-137
2.639402357e-138
2.986199068e-141
5.088852608e-145
1.41472175e-146
3.750282806e-164
2.089944877e-123
3.547404707e-125
1.041486074e-143
8.55094913e-121
1.168804155e-117
1.383847542e-118
6.075032485e-138
1.772190932e-94
1.991885988e-113
5.467342608e-82
3.980020841e-83
2.094906896e-102
2.29386448e-68
0
1.545452386e-57
4.063950906e-58
1.445925207e-81
9.04719701e-05
0.009606145874
0.06465420004
6.511940867e-147
2.650336252e-147
1.800407963e-147
1.443988077e-147
1.268846759e-147
1.197894754e-147
1.198521122e-147
1.254841246e-147
1.354611602e-147
1.487187077e-147
1.643438932e-147
1.817848651e-147
1.774086675e-147
1.523249381e-155
3.057671636e-133
1.070155554e-134
9.600350868e-138
1.892038307e-141
3.418759766e-145
2.750658497e-164
5.317333806e-121
1.720616174e-122
2.26295814e-125
2.134534924e-125
1.722331459e-116
1.861625421e-113
5.798484835e-134
1.977174735e-95
2.615789488e-114
3.591995461e-81
8.54742592e-81
0
8.992269444e-71
6.224741512e-90
9.983220451e-60
3.483351006e-60
2.387451026e-86
0.0001073726559
0.01012231599
0.06579752984
4.365933458e-146
1.705441983e-146
1.137710981e-146
9.0902302e-147
8.110476113e-147
7.913703219e-147
8.17004098e-147
8.551963812e-147
8.904744338e-147
9.198159991e-147
9.429201167e-147
9.679092155e-147
9.171568615e-147
1.464393666e-155
7.362959954e-131
2.662267651e-132
3.510722614e-135
1.767102736e-138
9.061042946e-142
0
5.000311259e-120
6.613392147e-120
4.172042542e-121
1.035645867e-117
6.183319766e-125
5.759035741e-108
1.019713812e-126
6.192683053e-97
2.632971232e-98
0
4.932417938e-76
2.229014902e-74
3.521539584e-74
1.105002024e-91
5.794436749e-63
3.001093914e-63
7.716462492e-85
0.000126132701
0.01063469988
0.06688768509
2.290171738e-145
8.900867684e-146
6.298284797e-146
5.58190294e-146
5.681593701e-146
6.115921591e-146
6.18585987e-146
5.748812977e-146
5.262840044e-146
4.848230909e-146
4.508860856e-146
4.835461728e-146
8.004041205e-146
1.522673554e-155
1.330806262e-129
1.254231807e-130
4.884704578e-132
3.741954139e-134
2.845977842e-137
1.094059588e-140
0
3.108375363e-115
1.555947525e-116
1.852317282e-115
1.453378065e-120
1.103752474e-103
5.679220195e-120
3.564340559e-99
1.513676241e-97
0
2.251398767e-72
2.181253998e-72
9.966230252e-73
0
3.09700073e-63
9.799300437e-64
0
0.0001470014017
0.01114147678
0.0679238414
1.166033104e-144
6.907240439e-145
7.326314642e-145
9.590803761e-145
1.466926586e-144
2.5941976e-144
5.202057285e-144
1.162621932e-143
2.87970928e-143
7.875998604e-143
2.371481981e-142
7.834162274e-142
2.847600914e-141
5.794311832e-151
3.317615337e-129
1.108311684e-126
1.637380774e-127
1.41497694e-129
8.364755951e-133
4.401323929e-136
0
1.090195077e-111
3.674378916e-113
7.710517436e-116
0
9.187755906e-102
1.546763516e-101
6.011477033e-121
7.872590056e-93
5.406091723e-105
3.334800949e-70
2.61967561e-71
2.720230901e-69
6.340596693e-89
4.66602458e-59
9.320249337e-60
4.059433394e-79
0.0001696567168
0.01164176476
0.06890579996
2.052665729e-140
2.18863051e-140
2.80131893e-140
3.994116993e-140
6.358984194e-140
1.142124824e-139
2.296344677e-139
5.127048333e-139
1.268523591e-138
3.466540905e-138
1.043256985e-137
3.446127175e-137
1.244414693e-136
4.886744e-136
2.54941705e-147
3.537281874e-122
4.910880364e-123
3.7172511e-125
1.70450666e-128
1.30620886e-131
3.503857309e-153
1.406120087e-109
6.478803155e-111
2.567969631e-118
7.576121927e-105
8.342695347e-106
3.45790463e-96
0
7.395505581e-88
1.974279298e-86
2.322238757e-69
1.111676148e-70
1.685682169e-66
1.57144041e-85
3.757458458e-56
5.740516386e-57
1.865641208e-75
0.0001940358042
0.01213496194
0.06983289002
8.618885634e-136
9.190211598e-136
1.175015774e-135
1.673336163e-135
2.660689202e-135
4.772782635e-135
9.583266422e-135
2.136861026e-134
5.28079613e-134
1.441732744e-133
4.336179201e-133
1.432077531e-132
5.172937646e-132
2.106947274e-131
1.143406318e-150
2.900013487e-118
3.357273922e-119
1.829603975e-121
6.454553372e-125
4.142220836e-127
8.765707335e-124
9.406278275e-109
4.480590127e-109
1.150373235e-115
1.525674248e-101
1.55891621e-105
2.717143403e-91
0
8.891143913e-83
1.674296588e-84
0
3.060092351e-65
2.557965237e-63
5.144672967e-82
2.115006178e-54
3.099228861e-55
2.503297851e-74
0.0002200641518
0.01262113322
0.07070457463
3.427582757e-131
3.654934215e-131
4.667534324e-131
6.638191059e-131
1.053980304e-130
1.887913497e-130
3.784885088e-130
8.426650238e-130
2.079593736e-129
5.671087764e-129
1.704289181e-128
5.626849579e-128
2.033214473e-127
8.225026444e-127
9.142573992e-146
1.647823788e-115
1.70683801e-116
7.925866015e-119
3.695975618e-122
1.575105142e-122
6.12915437e-122
0
9.369081134e-105
5.889904876e-105
2.888380343e-100
9.588576459e-106
2.145911341e-88
0
1.821958306e-78
3.580053573e-80
1.77698441e-100
3.244858218e-61
6.747969127e-61
0
1.4522263e-53
3.423668598e-54
1.857153293e-73
0.0002475804701
0.0131002886
0.07152122568
1.292432904e-126
1.378201386e-126
1.757787778e-126
2.49622454e-126
3.95689502e-126
7.075907778e-126
1.416038531e-125
3.147063996e-125
7.753859691e-125
2.111553526e-124
6.339259374e-124
2.09191649e-123
7.560379216e-123
3.036448767e-122
0
1.078086752e-113
1.149636567e-114
6.746972257e-117
1.00254675e-118
5.91437218e-118
5.114020873e-117
0
1.562079899e-101
6.15323665e-103
0
8.819008442e-92
3.665660061e-87
1.596236893e-101
6.580802982e-76
2.573518342e-77
1.014184268e-96
1.576412867e-58
9.966588913e-60
0
2.267454501e-53
9.046518937e-53
0
0.0002764199301
0.01357224763
0.07228435026
4.625585691e-122
4.932595035e-122
6.282370997e-122
8.906710954e-122
1.409222986e-121
2.515216527e-121
5.0230312e-121
1.114020206e-120
2.739433831e-120
7.447523557e-120
2.233000289e-119
7.363338096e-119
2.661109276e-118
1.060574382e-117
9.995173482e-132
1.656717329e-112
2.564974729e-113
8.522285094e-115
3.370687721e-114
2.201501996e-113
2.162280285e-112
0
1.886045445e-99
1.856785441e-99
5.848267272e-106
4.393515261e-89
2.3073942e-88
1.743534853e-94
7.998050878e-75
7.405188766e-74
1.024835705e-85
4.509815908e-57
5.561035582e-60
5.018929513e-54
2.837747366e-54
1.27103464e-48
0
0.0003063203576
0.01403694038
0.0729959467
1.572895973e-117
1.677242857e-117
2.132935124e-117
3.018265206e-117
4.765407885e-117
8.486649233e-117
1.690750977e-116
3.7406744e-116
9.177316399e-116
2.489883332e-115
7.453339586e-115
2.455194955e-114
8.870357025e-114
3.506680141e-113
1.484585559e-112
2.158108451e-111
4.063235596e-111
1.956945563e-110
1.149573091e-109
7.882959912e-109
9.051094931e-108
2.108387756e-126
2.973804159e-98
3.295873034e-97
3.164623586e-116
2.700260859e-85
1.749249386e-101
3.323373312e-76
3.714148301e-92
6.833095646e-69
2.395199939e-67
1.113445822e-56
1.973971224e-60
2.470218015e-52
2.845138428e-54
4.755548039e-45
1.206735659e-64
0.0003368079843
0.01449348759
0.07365658519
5.086675372e-113
5.42359021e-113
6.885396805e-113
9.722765049e-113
1.531387927e-112
2.720288942e-112
5.404365038e-112
1.192285267e-111
2.917161712e-111
7.895025696e-111
2.358554984e-110
7.758344493e-110
2.801161257e-109
1.107490951e-108
4.786654155e-108
2.240672967e-107
1.137169721e-106
6.240063937e-106
3.741989631e-105
2.744861369e-104
3.895553136e-103
0
1.602776809e-97
2.654257708e-96
4.831177312e-106
3.768838135e-83
4.056575346e-102
1.597523504e-72
1.193764695e-90
5.683491452e-64
1.468342244e-65
0
2.531338259e-53
2.979053149e-51
2.837325645e-54
2.31698226e-42
1.104442169e-61
0.0003676981591
0.01494062402
0.0742637407
1.565934279e-108
1.669338783e-108
2.115255279e-108
2.97978327e-108
4.680443124e-108
8.289763021e-108
1.6415993e-107
3.609636681e-107
8.803312736e-107
2.37550534e-106
7.078849064e-106
2.324230919e-105
8.382751137e-105
3.314210482e-104
1.434269189e-103
6.730997943e-103
3.424678913e-102
1.895354573e-101
1.160591195e-100
9.446479884e-100
1.739091215e-98
7.496727466e-97
4.751311527e-95
2.667311361e-96
3.478774131e-88
2.397106068e-82
5.808099869e-89
1.933961701e-70
3.244836877e-89
2.230415623e-60
6.559099355e-62
1.076199543e-80
9.658674065e-52
1.413860603e-50
2.84513835e-54
2.106926581e-40
3.534151422e-61
0.000402772245
0.01537298131
0.07481564221
4.592870048e-104
4.894898712e-104
6.189408178e-104
8.695571579e-104
1.361577466e-103
2.403430005e-103
4.741708476e-103
1.038624854e-102
2.523482388e-102
6.78548775e-102
2.015862526e-101
6.602987468e-101
2.377797543e-100
9.396805615e-100
4.070492877e-99
1.915144998e-98
9.786653995e-98
5.457619095e-97
3.445581219e-96
3.285490371e-95
8.217810591e-94
4.148144636e-92
2.614086071e-90
1.661644228e-88
1.078341483e-86
5.442045061e-100
3.159272387e-74
1.128401958e-69
1.238383058e-74
2.582766218e-58
1.566870403e-59
2.600649103e-78
4.487922262e-51
4.742928519e-50
2.837114922e-54
5.137900615e-39
5.546052228e-59
0.0004383968306
0.01579213049
0.07531504149
1.284500182e-99
1.368507106e-99
1.726408393e-99
2.418092613e-99
3.772899219e-99
6.634115151e-99
1.303225767e-98
2.841885928e-98
6.874325739e-98
1.8407728e-97
5.448472807e-97
1.779295106e-96
6.393793297e-96
2.52439249e-95
1.094105901e-94
5.159078493e-94
2.647267503e-93
1.489744233e-92
9.878565911e-92
1.183702493e-90
3.965163448e-89
2.225416691e-87
1.426959883e-85
9.109090777e-84
5.810523385e-82
1.022297965e-100
7.907840546e-71
1.243306612e-87
9.112349131e-60
1.710035156e-57
1.733926024e-56
0
3.529708053e-51
4.098012102e-48
2.84513835e-54
4.386918273e-38
4.500692336e-59
0.0004742405616
0.01619727166
0.0757661791
3.428493866e-95
3.651070711e-95
4.5940745e-95
6.412750503e-95
9.965512717e-95
1.744557172e-94
3.410202717e-94
7.398307108e-94
1.780427272e-93
4.744203801e-93
1.398020689e-92
4.548517689e-92
1.629908773e-91
6.425292833e-91
2.784872449e-90
1.315441694e-89
6.775673638e-89
3.860276518e-88
2.779458841e-87
4.493536969e-86
1.918941292e-84
1.14982319e-82
7.439001424e-81
4.666686975e-79
2.834091852e-77
2.204943201e-96
4.795564329e-67
0
8.913751282e-55
7.224411083e-74
6.786894823e-52
2.678585116e-51
1.410637559e-62
1.737290185e-45
2.837114923e-54
1.382583962e-37
3.813928844e-58
0.0005094731916
0.01658797101
0.07617366921
8.741443052e-91
9.303332397e-91
1.16726546e-90
1.62311071e-90
2.510882171e-90
4.373407415e-90
8.500912445e-90
1.833362997e-89
4.385870149e-89
1.161988057e-88
3.406153068e-88
1.103181243e-87
3.938983299e-87
1.549309316e-86
6.710952076e-86
3.173469372e-85
1.640521095e-84
9.529333563e-84
7.878091452e-83
1.796667327e-81
9.162256847e-80
5.687264821e-78
3.690400434e-76
2.256071538e-74
1.31304731e-72
1.936672843e-95
7.681173354e-65
9.747769501e-84
3.351513476e-51
6.806270572e-70
2.149193355e-47
2.184598907e-46
0
9.496577846e-44
2.845138351e-54
1.434591192e-37
6.437187532e-61
0.0005436114693
0.01696368673
0.0765423811
2.130922074e-86
2.266124981e-86
2.834146389e-86
3.923963642e-86
6.039035879e-86
1.045845188e-85
2.019852604e-85
4.326721615e-85
1.027982576e-84
2.705396119e-84
7.881236076e-84
2.538613263e-83
9.023796474e-83
3.538423972e-82
1.53057237e-81
7.240212828e-81
3.757653759e-80
2.25912459e-79
2.328071955e-78
7.435898581e-77
4.259629672e-75
2.681659881e-73
1.737109625e-71
1.027403924e-69
5.791917756e-68
5.790328938e-66
5.769253621e-64
9.409840632e-73
3.499185191e-49
2.946504491e-68
6.747580329e-44
8.245408606e-43
2.989640222e-44
1.067067671e-42
2.837114941e-54
1.432218684e-37
7.981875725e-60
0.0005756871596
0.01732415925
0.07687756473
4.971207475e-82
5.28139879e-82
6.581577248e-82
9.068256105e-82
1.387526646e-81
2.38731729e-81
4.577047264e-81
9.728878791e-81
2.29332873e-80
5.988994899e-80
1.732027985e-79
5.542627093e-79
1.959399025e-78
7.652376865e-78
3.302424253e-77
1.561321208e-76
8.151204286e-76
5.230628337e-75
7.387623207e-74
3.109577729e-72
1.908960913e-70
1.202089154e-68
7.731900782e-67
4.404750058e-65
2.544931165e-63
2.647101357e-61
5.802358229e-64
1.962367664e-54
1.919695933e-48
4.16754811e-53
1.984599003e-41
9.042315596e-41
2.214853685e-41
6.758399354e-42
2.845559793e-54
1.429025207e-37
9.303402487e-59
0.0006049047207
0.01766896372
0.07718492987
1.110940912e-77
1.178807584e-77
1.463124455e-77
2.004960688e-77
3.047718717e-77
5.20519595e-77
9.897106187e-77
2.085245329e-76
4.871289076e-76
1.260854132e-75
3.615620468e-75
1.148107948e-74
4.031878266e-74
1.566597006e-73
6.737530468e-73
3.181060133e-72
1.680598156e-71
1.220227235e-70
2.530681082e-69
1.286247891e-67
8.182126754e-66
5.113814155e-64
3.241615517e-62
1.780213634e-60
1.061753117e-58
1.065518983e-56
1.498988756e-54
4.81126825e-53
0
1.17343718e-41
1.245703141e-38
6.060156095e-40
9.365691725e-37
1.082840021e-37
1.312012992e-39
1.378406429e-37
6.328209786e-59
0.0006305686062
0.01799689899
0.07747028264
2.380628991e-73
2.522280155e-73
3.116621812e-73
4.24473048e-73
6.404873864e-73
1.084798913e-72
2.043344541e-72
4.262280059e-72
9.855173196e-72
2.524948599e-71
7.169764394e-71
2.256116436e-70
7.860446077e-70
3.034762951e-69
1.298994807e-68
6.123944488e-68
3.324821456e-67
3.00418642e-66
9.141699314e-65
5.184025771e-63
3.333141617e-61
2.061880836e-59
1.274993552e-57
6.792515497e-56
4.147224562e-54
4.389929156e-52
6.102626359e-50
1.912401359e-48
1.227675148e-66
6.633791524e-37
1.644157984e-35
3.80117459e-40
5.292310603e-32
5.793495991e-33
2.830508519e-35
1.807559297e-37
5.871591314e-57
0.0006519531237
0.01830425399
0.07773917389
4.897185378e-69
5.179143076e-69
6.367589684e-69
8.613170469e-69
1.288887322e-68
2.162553492e-68
4.030422022e-68
8.31237445e-68
1.899670395e-67
4.810671705e-67
1.350650206e-66
4.205385495e-66
1.45155335e-65
5.560388503e-65
2.365445716e-64
1.115876019e-63
6.450850477e-63
8.15885511e-62
3.361001652e-60
2.015869967e-58
1.284236551e-56
7.867286606e-55
4.687750569e-53
2.449426371e-51
1.510146568e-49
1.735451153e-47
2.246269512e-45
6.411803499e-44
0
1.612380299e-33
4.452393843e-34
1.5891945e-46
1.692059705e-27
1.691246888e-28
7.790317632e-31
1.911848022e-33
8.92579582e-65
0.0006657977424
0.0185842807
0.07799606475
9.682457704e-65
1.02174293e-64
1.249192449e-64
1.676816109e-64
2.485918482e-64
4.127090339e-64
7.600380212e-64
1.547525965e-63
3.490152378e-63
8.722105912e-63
2.417250252e-62
7.434760237e-62
2.538332263e-61
9.6313588e-61
4.067456349e-60
1.936316448e-59
1.281055676e-58
2.467427352e-57
1.22036641e-55
7.511305869e-54
4.66455341e-52
2.833778464e-50
1.607222518e-48
8.345595746e-47
5.104984268e-45
6.507822598e-43
7.665693447e-41
2.014378032e-39
0
1.702761453e-31
4.42046085e-34
2.282085364e-28
2.113297715e-24
2.077509315e-25
2.736704861e-27
9.368256251e-29
0
0.000671251292
0.01882772205
0.07824361914
1.842497344e-60
1.939162717e-60
2.356042947e-60
3.13555915e-60
4.600191968e-60
7.547023057e-60
1.371279688e-59
2.751973883e-59
6.114674916e-59
1.505331732e-58
4.110294479e-58
1.246550063e-57
4.20222618e-57
1.576451766e-56
6.611513143e-56
3.254117697e-55
2.772066529e-54
8.030324706e-53
4.294081065e-51
2.665965277e-49
1.594847394e-47
9.599014261e-46
5.136144242e-44
2.679181194e-42
1.600409765e-40
2.292595338e-38
2.428841223e-36
5.898472406e-35
3.096344292e-35
1.143155236e-30
4.271884286e-34
1.307400332e-23
1.62173186e-22
2.357570389e-23
5.688106398e-23
7.841186054e-24
0
0.000669283653
0.01901653477
0.07847754299
3.380010267e-56
3.546080247e-56
4.278297771e-56
5.639542088e-56
8.177489931e-56
1.323843927e-55
2.36929388e-55
4.677961823e-55
1.022141947e-54
2.474149179e-54
6.642137898e-54
1.982101276e-53
6.584733897e-53
2.438075927e-52
1.02105686e-51
5.508920769e-51
6.87020218e-50
2.676466576e-48
1.450419159e-46
8.958676047e-45
5.135093534e-43
3.041741258e-41
1.532866344e-39
8.057134855e-38
4.673248525e-36
7.499849436e-34
7.173807294e-32
1.599024761e-30
5.392225095e-30
1.145820725e-30
7.106316855e-23
6.099425496e-21
1.262000081e-21
5.468952439e-20
2.708231402e-18
3.523007086e-19
0
0.0006540303471
0.01914940471
0.07869298619
5.989888464e-52
6.260349601e-52
7.493769686e-52
9.7730656e-52
1.398662785e-51
2.230713125e-51
3.92493676e-51
7.608433652e-51
1.631575513e-50
3.874983732e-50
1.020453288e-49
2.989706172e-49
9.766768269e-49
3.567531264e-48
1.522760516e-47
1.008428142e-46
1.935931977e-45
8.782047846e-44
4.686144107e-42
2.831733977e-40