/*--------------------------------*- C++ -*----------------------------------*\
| =========                 |                                                 |
| \\      /  F ield         | OpenFOAM: The Open Source CFD Toolbox           |
|  \\    /   O peration     | Version:  v1912                                 |
|   \\  /    A nd           | Website:  www.openfoam.com                      |
|    \\/     M anipulation  |                                                 |
\*---------------------------------------------------------------------------*/
FoamFile
{
    version     2.0;
    format      ascii;
    class       volScalarField;
    location    "0.6";
    object      iDmdt.gasAndLiquid;
}
// * * * * * * * * * * * * * * * * * * * * * * * * * * * * * * * * * * * * * //

dimensions      [1 -3 -1 0 0 0 0];


internalField   nonuniform List<scalar> 
4800
(
6.613179118e-181
3.269537989e-181
2.580029278e-181
2.451083184e-181
2.5221496e-181
2.919307056e-181
3.643302289e-181
4.850789228e-181
6.84537532e-181
1.019761218e-180
1.593426519e-180
2.597975202e-180
2.14791158e-180
1.768842342e-174
1.218013796e-174
1.324354809e-174
3.010772559e-171
1.076388422e-167
3.519962152e-164
1.055556116e-160
2.810274603e-157
6.489824353e-154
5.48622514e-151
2.780272419e-148
8.036923873e-153
4.253644118e-136
6.120871057e-137
1.508332335e-139
6.787373534e-107
1.655364461e-105
0
6.532146076e-79
6.265648029e-78
6.468078624e-78
4.896605969e-63
4.95896879e-79
-1.386162257e-50
4.891827501e-66
-0.0005762715646
0.1010627066
3.966707216e-178
1.933542627e-178
1.51686611e-178
1.432378571e-178
1.466433939e-178
1.685040203e-178
2.085731471e-178
2.751255635e-178
3.842312053e-178
5.658461733e-178
8.732211141e-178
1.404904381e-177
1.208684731e-177
8.405682846e-172
5.94735603e-172
3.567912995e-172
2.820176291e-169
8.933159829e-166
2.525582769e-162
6.438407362e-159
1.432206231e-155
2.870396909e-152
1.09575116e-149
5.937108917e-147
9.204850551e-153
4.213412662e-133
1.323339143e-133
2.243994194e-148
0
3.135602052e-101
0
4.292626639e-77
4.625655852e-96
1.108288228e-62
5.584605081e-61
5.013618217e-79
-3.813680412e-49
2.405707337e-66
-0.001129751773
0.1958114011
9.707449407e-176
4.687412683e-176
3.656876906e-176
3.432275352e-176
3.495690345e-176
3.987036162e-176
4.893716766e-176
6.393826772e-176
8.834467357e-176
1.285739483e-175
1.958912275e-175
3.108658997e-175
2.778595315e-175
1.616908748e-169
1.179726379e-169
5.971416649e-170
1.172312085e-167
3.351020532e-164
8.213316507e-161
1.71862413e-157
2.846006394e-154
4.57909529e-151
4.66402798e-149
6.01908905e-146
9.072237653e-153
3.285228751e-132
1.075212381e-128
1.474847257e-129
0
2.633054406e-97
2.382164656e-116
1.745318116e-75
2.882584525e-94
3.200365536e-59
2.834253917e-58
9.947270758e-78
5.998226767e-47
2.337590998e-66
-0.002238094673
0.2752270866
1.539125983e-173
7.374049896e-174
5.722135177e-174
5.33802592e-174
5.408155701e-174
6.121989281e-174
7.450182255e-174
9.640028837e-174
1.317624987e-173
1.894776952e-173
2.849532637e-173
4.459304441e-173
4.134873018e-173
1.992862719e-167
1.507625489e-167
7.433429837e-168
3.297199567e-166
8.787163852e-163
1.952451105e-159
3.461407031e-156
3.817215393e-153
3.901137927e-150
4.402090885e-151
1.459479828e-142
4.17107577e-143
5.331184046e-151
1.864882802e-123
1.970789382e-124
0
1.844266296e-94
1.117357894e-113
2.178698819e-74
1.716633679e-93
9.602081339e-57
2.913385486e-56
0
6.090531727e-45
2.404690041e-67
-0.003214170156
0.3378003798
1.769089317e-171
8.415921075e-172
6.496506767e-172
6.023419624e-172
6.070224938e-172
6.819263991e-172
8.227150183e-172
1.054140791e-171
1.425120376e-171
2.024643414e-171
3.005011624e-171
4.636486811e-171
4.452162377e-171
1.757209924e-165
1.387275074e-165
6.914865026e-166
6.737644376e-165
1.690928562e-161
3.58457473e-158
5.848677969e-155
4.49465505e-152
1.730552532e-149
3.6062346e-151
6.590785455e-140
1.496163555e-140
2.010392591e-157
8.846487603e-120
9.341970964e-121
0
7.09188362e-92
1.342622616e-111
1.268368376e-73
4.124669724e-93
7.032502392e-55
9.21860944e-55
0
1.095315793e-43
1.846717161e-64
-0.004146306256
0.3812560999
1.574397717e-169
7.439673262e-170
5.713265224e-170
5.264725921e-170
5.277226889e-170
5.882902015e-170
7.03545926e-170
8.925378347e-170
1.193335348e-169
1.674653836e-169
2.452622937e-169
3.730244266e-169
3.701886188e-169
1.181454781e-163
9.807979594e-164
4.989224544e-164
1.10192596e-163
2.406141137e-160
5.022744755e-157
8.043823314e-154
5.109733762e-151
3.19420755e-149
3.581816516e-151
1.818952402e-138
7.144948019e-139
8.152833959e-159
8.151305115e-118
1.377009968e-118
6.667475356e-138
9.748761604e-89
0
3.858373541e-73
0
1.20147291e-53
1.019893592e-53
5.043900993e-72
2.77531931e-43
4.61966148e-61
-0.004828900337
0.411142099
1.129715305e-167
5.3038424e-168
4.052134828e-168
3.710973947e-168
3.699634169e-168
4.092218827e-168
4.850597488e-168
6.09193827e-168
8.053974699e-168
1.116259873e-167
1.612862375e-167
2.417560342e-167
2.473768669e-167
6.293432302e-162
5.543521888e-162
2.885432039e-162
1.914965642e-162
2.536266362e-159
5.29279281e-156
8.566517829e-153
4.956879696e-150
6.286768091e-150
3.834977606e-151
3.841179942e-138
2.709837429e-135
2.549492829e-151
4.230597351e-117
6.7402498e-117
2.781550933e-137
2.700595025e-86
0
6.658433185e-73
1.605927663e-91
6.144351413e-53
3.9595463e-53
3.577689423e-71
2.973496823e-43
0
-0.00502936571
0.4331859597
6.717626238e-166
3.133827424e-166
2.38194437e-166
2.16784999e-166
2.149357022e-166
2.358729307e-166
2.770693181e-166
3.444338728e-166
4.501987505e-166
6.16123923e-166
8.780808481e-166
1.296859459e-165
1.364725157e-165
2.72290949e-160
2.572384668e-160
1.371119751e-160
5.093672053e-161
1.99009761e-158
4.185060414e-155
6.936611372e-152
3.684744202e-149
1.322188658e-149
4.375502468e-146
1.243713344e-149
4.792023073e-132
2.809755859e-132
0
1.735161955e-112
2.364753618e-132
1.698131306e-84
8.164048782e-103
1.076246076e-72
4.909520508e-92
6.815760989e-53
5.66430862e-53
1.807646419e-71
3.098047458e-43
6.970287583e-64
-0.005396815598
0.4491846138
3.375490634e-164
1.564828999e-164
1.183258081e-164
1.070154629e-164
1.055100213e-164
1.148625439e-164
1.33687005e-164
1.644680817e-164
2.124882995e-164
2.870861337e-164
4.034703373e-164
5.870155076e-164
6.33488746e-164
9.72858238e-159
9.985160193e-159
5.450788648e-159
1.745859675e-159
1.176069225e-157
2.492354747e-154
4.271546027e-151
2.042030237e-148
4.987101526e-149
1.024577919e-144
1.678534855e-157
8.902761236e-130
7.526481941e-130
8.98517121e-149
4.498662585e-108
3.675276351e-128
3.744270378e-83
0
3.145770765e-72
0
6.763135685e-53
5.507978263e-53
1.789094973e-74
3.200270725e-43
0
-0.005685185125
0.4610957598
1.454087395e-162
6.698986684e-163
5.039201667e-163
4.528618829e-163
4.439433127e-163
4.793572881e-163
5.526902196e-163
6.727470703e-163
8.589300031e-163
1.145362769e-162
1.586962682e-162
2.27396638e-162
2.508872942e-162
2.901809646e-157
3.286240181e-157
1.836742731e-157
5.709276663e-158
5.503564069e-157
1.122140908e-153
1.999983813e-150
8.464155423e-148
8.795948368e-149
4.125590349e-143
2.717705717e-158
3.578723747e-128
2.926505278e-128
0
9.281885363e-104
0
3.629481314e-82
8.357376866e-101
4.972528841e-72
1.677308577e-92
6.712022796e-53
4.64329876e-53
7.070327223e-72
3.374364361e-43
1.218283835e-63
-0.005832510326
0.4703617045
5.428654211e-161
2.485428425e-161
1.859792741e-161
1.660580316e-161
1.618322372e-161
1.732839085e-161
1.978730173e-161
2.382440097e-161
3.005156821e-161
3.954116325e-161
5.399894718e-161
7.618722865e-161
8.565631749e-161
7.273905656e-156
9.259432626e-156
5.295756279e-156
1.630200531e-156
2.612437032e-156
3.844911079e-153
7.045257182e-150
2.688646388e-147
9.964490718e-149
6.840859296e-142
1.664853757e-157
5.142996553e-127
3.722873336e-127
1.33232657e-146
2.755391466e-100
2.900098605e-119
1.533119607e-81
1.373107456e-100
4.942592925e-72
0
6.660941524e-53
3.085267897e-53
4.984549535e-65
2.942433586e-43
0
-0.006004484066
0.4780043813
1.771024364e-159
8.05751745e-160
5.996874747e-160
5.319210076e-160
5.15230931e-160
5.46954836e-160
6.18392764e-160
7.362791916e-160
9.172945446e-160
1.190631707e-159
1.602188209e-159
2.225302396e-159
2.540605853e-159
1.537009317e-154
2.248812345e-154
1.314887267e-154
4.020690119e-155
2.203479991e-155
1.042410506e-152
1.815259098e-149
7.094291523e-147
1.037341555e-148
5.035011618e-141
2.76596595e-158
2.935509905e-126
2.137601829e-126
5.795468902e-146
9.814556582e-98
0
1.715381194e-81
0
4.910187069e-72
9.783025388e-91
6.247475937e-53
0
3.359993268e-46
4.022209192e-45
0
-0.00603895091
0.4846988399
5.080290182e-158
2.296518147e-158
1.699707978e-158
1.497393125e-158
1.441193591e-158
1.516375471e-158
1.696970371e-158
1.997427487e-158
2.457223151e-158
3.145536617e-158
4.169832396e-158
5.699837771e-158
6.58380507e-158
2.737096158e-153
4.729024653e-153
2.821910232e-153
8.58019567e-154
3.134124983e-154
2.766352924e-152
3.215218344e-149
1.309077132e-146
1.089658531e-148
9.330395609e-141
1.664321902e-157
6.606217268e-126
6.313628155e-126
0
6.618151288e-96
5.621587536e-115
1.704311366e-81
0
4.877489895e-72
0
4.198174839e-53
0
3.325016936e-46
0
7.345115661e-06
-0.006036699818
0.4908080254
1.287218271e-156
5.779853544e-157
4.25291774e-157
3.72030348e-157
3.556799979e-157
3.708095233e-157
4.106265516e-157
4.7769325e-157
5.801335037e-157
7.322508185e-157
9.559798846e-157
1.285654625e-156
1.49657695e-156
4.092612025e-152
8.637901407e-152
5.240642763e-152
1.586967134e-152
4.799950631e-153
1.189388064e-151
3.464059345e-149
1.294651054e-146
1.185611664e-148
9.27874743e-141
2.686329364e-158
7.699979907e-126
8.156758938e-126
0
1.307910538e-94
0
1.69340194e-81
0
4.296915977e-72
4.195750905e-91
1.516832106e-53
0
3.26501423e-46
0
2.97301538e-05
-0.005999215186
0.4965156579
2.889538179e-155
1.288204408e-155
9.420499694e-156
8.180395575e-156
7.766192639e-156
8.020282482e-156
8.786351578e-156
1.010002903e-155
1.210638369e-155
1.5063237e-155
1.936048289e-155
2.560569561e-155
2.991330397e-155
5.098253071e-151
1.374209224e-150
8.415536675e-151
2.544095006e-151
6.842553715e-152
7.831212251e-151
2.095384363e-149
9.10595847e-147
7.766032475e-148
8.657791628e-141
1.722519685e-146
7.622242465e-126
8.103691736e-126
1.323499377e-144
1.062206309e-93
6.45101337e-113
1.654115243e-81
1.55612069e-101
2.3858754e-72
0
2.18616698e-54
0
1.447777464e-46
0
6.264591148e-05
-0.005926355681
0.5019342676
5.755789791e-154
2.546248655e-154
1.849910414e-154
1.594229651e-154
1.502499498e-154
1.536735881e-154
1.665192102e-154
1.891081982e-154
2.236702825e-154
2.742380833e-154
3.468265677e-154
4.508425439e-154
5.262909146e-154
5.221297794e-150
1.906899908e-149
1.168380866e-149
3.529769678e-150
8.787755339e-151
5.060196543e-150
2.873963127e-149
9.729687348e-147
1.080197007e-144
1.291990275e-156
9.342211387e-128
7.13631373e-126
7.483951857e-126
0
3.775558949e-93
0
1.25926489e-81
1.45686983e-101
5.933191837e-73
5.738800785e-92
8.869151484e-56
1.031719296e-74
1.700261079e-47
1.968033634e-67
9.86795179e-05
-0.005815983032
0.5071520766
1.017546319e-152
4.464006768e-153
3.221106734e-153
2.754474337e-153
2.576611682e-153
2.609670005e-153
2.796610397e-153
3.136908914e-153
3.659550299e-153
4.418833312e-153
5.495036834e-153
7.015860274e-153
8.148586557e-153
4.301791075e-149
2.289343153e-148
1.409815815e-148
4.224847198e-149
1.000505486e-149
2.830222716e-149
7.870077633e-149
6.386071163e-146
5.426456969e-144
7.884885987e-162
4.015518393e-125
4.516925261e-125
1.835557503e-125
2.238179241e-144
4.446606353e-93
0
6.28216448e-82
9.803728101e-101
3.973537754e-74
1.009720325e-83
6.804753014e-58
1.075560626e-84
3.326717701e-49
0
0.0001333589978
-0.005698004961
0.512221791
1.594641698e-151
6.934604511e-152
4.969073153e-152
4.216341103e-152
3.914195645e-152
3.925298497e-152
4.15886096e-152
4.60513563e-152
5.295033033e-152
6.291106548e-152
7.686398833e-152
9.63389109e-152
1.108815053e-151
2.748513946e-148
2.288675551e-147
1.490136373e-147
4.324742373e-148
9.939316997e-149
1.369052943e-148
3.220087597e-149
4.543981578e-142
4.214574148e-143
0
2.3735016e-123
2.406519144e-123
7.559099072e-124
2.659245115e-142
4.418054857e-93
0
2.381351208e-82
1.696475819e-83
7.093954531e-94
2.552668849e-65
4.657440934e-68
3.923459209e-55
7.129929703e-52
2.142165898e-76
0.0001650254527
-0.005597064566
0.5171787469
2.210180381e-150
9.52698907e-151
6.779548549e-151
5.708110515e-151
5.257645769e-151
5.218232641e-151
5.462008702e-151
5.964370665e-151
6.751358579e-151
7.885299172e-151
9.461514073e-151
1.164214589e-150
1.323030606e-150
1.268182405e-147
1.7649234e-146
1.341082752e-146
3.703795607e-147
8.433427143e-148
5.850037316e-148
4.991676942e-155
4.570116255e-137
2.34686626e-138
6.720821041e-158
3.967263721e-122
4.063482204e-122
1.392071669e-122
0
4.388164495e-93
0
1.173743971e-82
7.178948498e-83
0
2.544464468e-65
0
5.243172063e-55
5.752800079e-55
8.292938425e-77
0.0001933237708
-0.00549794616
0.5220466503
2.700958189e-149
1.154266984e-149
8.156219151e-150
6.811391817e-150
6.219490002e-150
6.101708624e-150
6.299956267e-150
6.773785094e-150
7.540736621e-150
8.656648363e-150
1.020827443e-149
1.23415408e-149
1.379023797e-149
3.432319512e-147
1.293300515e-145
9.582814847e-146
2.737117312e-146
6.115047356e-147
2.302270238e-147
1.858870473e-159
4.85388877e-132
1.657598274e-133
2.199408325e-153
2.966826278e-121
2.807458057e-121
9.598693344e-122
1.094976927e-140
3.781044517e-93
3.583243849e-112
6.910735418e-83
7.120800077e-83
6.598767251e-102
1.469925435e-65
0
4.061354296e-55
1.376515961e-55
7.0120423e-78
0.0002180947255
-0.005385858533
0.5268367285
2.899480625e-148
1.227612865e-148
8.602639992e-149
7.113873661e-149
6.425661224e-149
6.216884239e-149
6.319466011e-149
6.685537834e-149
7.326085117e-149
8.28388217e-149
9.619297565e-149
1.142516678e-148
1.245190212e-148
1.049327135e-150
3.787756585e-141
2.123477954e-142
3.902749899e-145
4.951141523e-146
9.020011459e-147
9.570496288e-164
5.378037163e-127
1.07343417e-128
0
1.452565373e-120
7.527900109e-120
4.446524447e-121
0
2.105200015e-93
0
5.084901034e-83
4.186195265e-83
2.736160088e-103
2.480373461e-66
1.257489673e-86
1.035103871e-55
2.623399296e-56
4.615996094e-79
0.0002391542444
-0.005263375156
0.5315430404
2.717333074e-147
1.134684685e-147
7.854828371e-148
6.408276067e-148
5.707399289e-148
5.43549464e-148
5.444420779e-148
5.690464519e-148
6.172267155e-148
6.899647007e-148
7.881215468e-148
9.133163122e-148
9.539247587e-148
6.644968042e-155
1.933031785e-136
8.920442327e-138
1.009117417e-140
1.719423254e-144
4.779384575e-146
1.266780124e-163
7.058408303e-123
1.197887506e-124
3.51634035e-143
2.886574763e-120
3.944939029e-117
4.669989874e-118
2.049767093e-137
5.978520481e-94
6.718525976e-113
1.843788141e-81
1.341974164e-82
7.06230471e-102
7.731435335e-68
0
5.181145943e-57
1.424640136e-57
3.78829869e-81
0.0002563255987
-0.005137522767
0.5361382502
2.188497065e-146
8.907029213e-147
6.050539615e-147
4.852587094e-147
4.263839777e-147
4.025203873e-147
4.027059579e-147
4.215994535e-147
4.550832228e-147
4.995770186e-147
5.520106337e-147
6.10527198e-147
5.957611075e-147
5.114641059e-155
1.026547089e-132
3.592329084e-134
3.222218773e-137
6.349424352e-141
1.147116645e-144
9.228020385e-164
1.783598994e-120
5.770553815e-122
7.588207503e-125
7.156394726e-125
5.773449916e-116
6.239331178e-113
1.943062607e-133
6.624351161e-95
8.762470688e-114
1.203052017e-80
2.862254145e-80
0
3.010113969e-70
2.0839487e-89
3.327472347e-59
1.20607337e-59
6.372859281e-86
0.0002796584682
-0.005015522973
0.5405796193
1.457392904e-145
5.69288851e-146
3.79768026e-146
3.034219583e-146
2.707068603e-146
2.641245125e-146
2.726619695e-146
2.85386246e-146
2.971331568e-146
3.068943484e-146
3.145698392e-146
3.228696605e-146
3.059025345e-146
4.88360796e-155
2.455137343e-130
8.875905284e-132
1.170287391e-134
5.889665599e-138
3.019520114e-141
0
1.665765844e-119
2.202764368e-119
1.389372002e-120
3.448312103e-117
2.058458362e-124
1.916880477e-107
3.393503649e-126
2.060504486e-96
8.759220756e-98
0
1.64031807e-75
7.411470649e-74
1.170706712e-73
3.673449025e-91
1.919923658e-62
1.026353593e-62
2.098415488e-84
0.0003244584867
-0.004893013482
0.5448540129
7.593058228e-145
2.951053069e-145
2.088127874e-145
1.850554316e-145
1.883515815e-145
2.027381508e-145
2.050421635e-145
1.905399196e-145
1.744166806e-145
1.606596153e-145
1.493968958e-145
1.601990596e-145
2.65139726e-145
5.043270303e-155
4.407141416e-129
4.152921723e-130
1.617131811e-131
1.23860971e-133
9.418777063e-137
3.620173471e-140
0
1.028180355e-114
5.145806842e-116
6.124862106e-115
4.804872809e-120
3.64835864e-103
1.876883891e-119
1.177744747e-98
5.000676041e-97
0
7.43527028e-72
7.202348108e-72
3.290247122e-72
0
1.019973609e-62
3.310946814e-63
0
0.0003635668884
-0.004752086327
0.5489820615
3.839670156e-144
2.274486691e-144
2.412425362e-144
3.157963544e-144
4.829906439e-144
8.54095078e-144
1.712560251e-143
3.827116397e-143
9.478492924e-143
2.592083643e-142
7.803894967e-142
2.577674473e-141
9.368165035e-141
1.905958596e-150
1.091114716e-128
3.644483772e-126
5.383327848e-127
4.651309167e-129
2.749171945e-132
1.446282811e-135
0
3.581077023e-111
1.206736514e-112
2.531810052e-115
0
3.015757842e-101
5.076118546e-101
1.972471695e-120
2.5826765e-92
1.773206974e-104
1.093630518e-69
8.58958479e-71
8.917953083e-69
2.078213418e-88
1.527282354e-58
3.111687323e-59
1.142118078e-78
0.0004032054713
-0.004616855099
0.552953265
6.713066425e-140
7.157654571e-140
9.161143246e-140
1.30614279e-139
2.079382918e-139
3.734490746e-139
7.507932905e-139
1.676141797e-138
4.146643214e-138
1.133037219e-137
3.40944794e-137
1.126067513e-136
4.065690975e-136
1.596323868e-135
8.326661398e-147
1.155114608e-121
1.603383285e-122
1.213444995e-124
5.563078205e-128
4.262318398e-131
1.143129575e-152
4.586556008e-109
2.112876984e-110
8.373071169e-118
2.469778741e-104
2.719159805e-105
1.126833994e-95
0
2.409109796e-87
6.4301414e-86
7.5621211e-69
3.619424134e-70
5.487521658e-66
5.113985374e-85
1.22220195e-55
1.894154865e-56
5.328311763e-75
0.0004433532911
-0.004484690544
0.5567546282
2.799361227e-135
2.984892399e-135
3.816234037e-135
5.434457124e-135
8.640572381e-135
1.549848619e-134
3.111676873e-134
6.93768725e-134
1.714311571e-133
4.679739303e-133
1.407296298e-132
4.647093909e-132
1.678356585e-131
6.834843505e-131
3.708511471e-150
9.404155486e-118
1.088489845e-118
5.930755974e-121
2.091859707e-124
1.342182526e-126
2.839725479e-123
3.046617358e-108
1.450928993e-108
3.724442129e-115
4.938521379e-101
5.045127055e-105
8.791804212e-91
0
2.875820928e-82
5.41451172e-84
0
9.89262259e-65
8.26827983e-63
1.662280642e-81
6.835794956e-54
1.010888776e-54
7.247447838e-74
0.0004831470017
-0.004353355045
0.5603877062
1.105570539e-130
1.178889672e-130
1.505457577e-130
2.140973349e-130
3.399130719e-130
6.088142305e-130
1.22043992e-129
2.716899146e-129
6.704184257e-129
1.828003342e-128
5.492772737e-128
1.813202221e-127
6.550763448e-127
2.649533353e-126
2.944556718e-145
5.306131065e-115
5.495057062e-116
2.551154527e-118
1.189398189e-121
5.067741544e-122
1.97156629e-121
0
3.012449074e-104
1.893381656e-104
9.283099732e-100
3.081084451e-105
6.894052816e-88
0
5.851087652e-78
1.149502275e-79
5.70465162e-100
1.041518424e-60
2.1656686e-60
0
4.66334614e-53
1.104071471e-53
5.444038785e-73
0.0005216360225
-0.004228434691
0.5638653872
4.139833787e-126
4.414508879e-126
5.630186548e-126
7.995015125e-126
1.267250307e-125
2.265976223e-125
4.534264331e-125
1.007602801e-124
2.48226092e-124
6.758824998e-124
2.028810296e-123
6.693844316e-123
2.418789474e-122
9.712677181e-122
0
3.44708008e-113
3.675068284e-114
2.15634513e-116
3.20343867e-118
1.889389365e-117
1.633336297e-116
0
4.98675044e-101
1.963904511e-102
0
2.813506791e-91
1.169205015e-86
5.090373121e-101
2.098209493e-75
8.203868856e-77
3.232464296e-96
5.023581428e-58
3.175717534e-59
0
7.233548736e-53
2.884545076e-52
0
0.0005579818204
-0.004107573418
0.5672088178
1.471309016e-121
1.568942864e-121
1.998209706e-121
2.832780099e-121
4.481730657e-121
7.998427095e-121
1.597169903e-120
3.541827245e-120
8.708381599e-120
2.367142357e-119
7.09628319e-119
2.339595296e-118
8.453704785e-118
3.368517627e-117
3.173925974e-131
5.259683094e-112
8.14133253e-113
2.704374749e-114
1.069364039e-113
6.982661191e-113
6.856587706e-112
0
5.977750312e-99
5.883616467e-99
1.852718382e-105
1.39154464e-88
7.306570327e-88
5.519929496e-94
2.531646121e-74
2.343557916e-73
3.242795027e-85
1.42676267e-56
1.759158314e-59
1.586713263e-53
8.993004605e-54
4.007515797e-48
0
0.0005917916482
-0.003994014459
0.5704265057
4.968044929e-117
5.297556477e-117
6.736622911e-117
9.532321207e-117
1.504908471e-116
2.679829758e-116
5.338311953e-116
1.180919128e-115
2.896841489e-115
7.858142659e-115
2.351890551e-114
7.745888424e-114
2.797947497e-113
1.105865756e-112
4.680738728e-112
6.802694937e-111
1.280485237e-110
6.165568579e-110
3.620933068e-109
2.482340126e-108
2.849446613e-107
6.635865941e-126
9.35725387e-98
1.036806185e-96
9.952754797e-116
8.490337976e-85
5.498873881e-101
1.044501856e-75
1.167087055e-91
2.146749371e-68
7.52370247e-67
3.496937634e-56
6.198989728e-60
7.752227728e-52
8.956308972e-54
1.482623168e-44
3.65499458e-64
0.0006219658471
-0.003903487492
0.5734708998
1.595343322e-112
1.700985872e-112
2.159368843e-112
3.049038582e-112
4.802033697e-112
8.529304556e-112
1.694313598e-111
3.737420559e-111
9.14297091e-111
2.474047755e-110
7.389604442e-110
2.430290739e-109
8.772734841e-109
3.467679787e-108
1.498399095e-107
7.01238728e-107
3.557956657e-106
1.951861917e-105
1.170158929e-104
8.581107842e-104
1.217508864e-102
0
5.006548099e-97
8.288822358e-96
1.508310467e-105
1.176353448e-82
1.265867008e-101
4.984025988e-72
3.723602715e-90
1.772468797e-63
4.578434516e-65
0
7.891097103e-53
9.280023738e-51
8.871798441e-54
7.141993484e-42
3.379062187e-61
0.0007010533234
-0.003858262126
0.5762788175
4.876572302e-108
5.198510375e-108
6.586887938e-108
9.278461431e-108
1.457280476e-107
2.580800474e-107
5.110072392e-107
1.123472957e-106
2.739531987e-106
7.391107942e-106
2.202074221e-105
7.228649975e-105
2.60655201e-104
1.03028067e-103
4.457548679e-103
2.0913647e-102
1.063777257e-101
5.885702286e-101
3.602976139e-100
2.931735068e-99
5.395715324e-98
2.32525615e-96
1.473284694e-94
8.268444785e-96
1.078096047e-87
7.426853503e-82
1.799055649e-88
5.989061245e-70
1.004644754e-88
6.904352217e-60
2.030055997e-61
3.330342251e-80
2.988734654e-51
4.371498895e-50
8.836332263e-54
6.419812153e-40
1.092717959e-60
0.0007339487844
-0.003746490098
0.5788937799
1.42014544e-103
1.51351002e-103
1.913695313e-103
2.688401253e-103
4.209215341e-103
7.429230634e-103
1.465519843e-102
3.209602124e-102
7.79686039e-102
2.09613476e-101
6.226007783e-101
2.038882396e-100
7.340443731e-100
2.900124666e-99
1.255932339e-98
5.907424953e-98
3.017889483e-97
1.682445388e-96
1.061856739e-95
1.012202542e-94
2.53096653e-93
1.277167041e-91
8.045982652e-90
5.11288267e-88
3.317090843e-86
1.673564624e-99
9.713019127e-74
3.468378597e-69
3.80559936e-74
7.935403536e-58
4.813311727e-59
7.987796012e-78
1.37839128e-50
1.455437928e-49
8.752172788e-54
1.547001835e-38
1.733489957e-58
0.0007611503599
-0.003642683656
0.5813751462
3.94345773e-99
4.20128947e-99
5.299808255e-99
7.422672028e-99
1.158039176e-98
2.03601961e-98
3.99907803e-98
8.719242074e-98
2.10874898e-97
5.645582431e-97
1.67066184e-96
5.454547594e-96
1.959559983e-95
7.734616162e-95
3.351324348e-94
1.579786657e-93
8.103788559e-93
4.558916635e-92
3.022039784e-91
3.61995361e-90
1.212201489e-88
6.801094127e-87
4.359482251e-85
2.78200144e-83
1.774034057e-81
3.120292939e-100
2.412989935e-70
3.792849303e-87
2.779194815e-59
5.214437141e-57
5.286402043e-56
0
1.075962436e-50
1.247984885e-47
8.718600812e-54
1.304396545e-37
1.423649555e-58
0.0007846896815
-0.003544815453
0.5837477796
1.04502798e-94
1.112850573e-94
1.400214738e-94
1.954384664e-94
3.036853524e-94
5.315664164e-94
1.038939946e-93
2.253567404e-93
5.422263517e-93
1.444536166e-92
4.255770678e-92
1.384284057e-91
4.959078226e-91
1.954362046e-90
8.468071977e-90
3.998631615e-89
2.058955864e-88
1.17263522e-87
8.440165701e-87
1.364026226e-85
5.822890653e-84
3.487794454e-82
2.255689734e-80
1.414562034e-78
8.587792292e-77
6.679236743e-96
1.452247417e-66
0
2.697991369e-54
2.186218241e-73
2.053475008e-51
8.103315771e-51
4.267535824e-62
5.250048819e-45
8.63630476e-54
4.05777626e-37
1.222096572e-57
0.0008016456428
-0.003455126417
0.5860249974
2.645310415e-90
2.815293049e-90
3.532104767e-90
4.911107883e-90
7.596505539e-90
1.322978281e-89
2.571181696e-89
5.544208493e-89
1.326051399e-88
3.512445962e-88
1.029356367e-87
3.33297905e-87
1.18972049e-86
4.678056497e-86
2.025676273e-85
9.575722913e-85
4.948390934e-84
2.87332158e-83
2.374531665e-82
5.413234873e-81
2.759449399e-79
1.712199231e-77
1.110598803e-75
6.786928987e-74
3.948604402e-72
5.82197787e-95
2.308360367e-64
2.928572454e-83
1.006657559e-50
2.043889383e-69
6.452834028e-47
6.558253458e-46
0
2.84753154e-43
8.604718562e-54
4.151919945e-37
2.091995147e-60
0.000810523363
-0.003374750113
0.5882190996
6.402030549e-86
6.808086763e-86
8.514147992e-86
1.178716896e-85
1.813869156e-85
3.140855908e-85
6.065004619e-85
1.298942863e-84
3.085499517e-84
8.118363086e-84
2.364391293e-83
7.61375305e-83
2.70557146e-82
1.060566229e-81
4.585971077e-81
2.168554506e-80
1.125045769e-79
6.761171231e-79
6.964686368e-78
2.223609229e-76
1.273253081e-74
8.012429476e-73
5.188086488e-71
3.067217509e-69
1.72844475e-67
1.727328521e-65
1.720448507e-63
2.805234198e-72
1.04288432e-48
8.779683026e-68
2.010228798e-43
2.456141383e-42
8.906332103e-44
3.174376594e-42
8.525796674e-54
4.084552365e-37
2.632527024e-59
0.0008110388283
-0.003305541228
0.5903443167
1.482711687e-81
1.575194737e-81
1.962871074e-81
2.704265853e-81
4.137312328e-81
7.117480715e-81
1.364359057e-80
2.899488144e-80
6.833267952e-80
1.78405492e-79
5.158104529e-79
1.650140562e-78
5.83159946e-78
2.276725229e-77
9.821709895e-77
4.641706628e-76
2.42231402e-75
1.553741835e-74
2.193513965e-73
9.228762674e-72
5.662952396e-70
3.564393337e-68
2.291605046e-66
1.304917697e-64
7.536206657e-63
7.835587294e-61
1.716889779e-63
5.804584583e-54
5.676699223e-48
1.232083119e-52
5.866182607e-41
2.672439373e-40
6.546892285e-41
1.994451544e-41
8.497717062e-54
4.01328059e-37
3.113985921e-58
0.0008043038764
-0.003249987747
0.5924260723
3.289416575e-77
3.49028286e-77
4.331857819e-77
5.935546636e-77
9.021496754e-77
1.540553577e-76
2.928675433e-76
6.16922944e-76
1.440841007e-75
3.728406134e-75
1.068846867e-74
3.392953977e-74
1.191115552e-73
4.626409862e-73
1.988920763e-72
9.386611717e-72
4.956923599e-71
3.597432008e-70
7.457379819e-69
3.788483136e-67
2.408770243e-65
1.504739087e-63
9.53379486e-62
5.233207203e-60
3.11973263e-58
3.129411441e-56
4.400691282e-54
1.411953975e-52
0
3.441662627e-41
3.652938854e-38
1.776876288e-39
2.746661973e-36
3.169456613e-37
3.894619069e-39
3.808505877e-37
2.147688168e-58
0.0007958371241
-0.003210285214
0.5944642569
6.997477923e-73
7.413652926e-73
9.160029543e-73
1.247449085e-72
1.882042945e-72
3.187138347e-72
6.002229829e-72
1.251754387e-71
2.893573055e-71
7.411444333e-71
2.103887926e-70
6.61811215e-70
2.304955037e-69
8.895509704e-69
3.806036009e-68
1.793516734e-67
9.73287899e-67
8.790018672e-66
2.673450462e-64
1.515264652e-62
9.737488129e-61
6.020413356e-59
3.720835978e-57
1.981234409e-55
1.209042791e-53
1.279175648e-51
1.777427352e-49
5.567689756e-48
3.572929078e-66
1.930090453e-36
4.782688556e-35
1.105577594e-39
1.539744244e-31
1.681543562e-32
8.355049108e-35
4.908785019e-37
2.015738897e-56
0.0007932546894
-0.003180232055
0.5965117355
1.428917983e-68
1.511148423e-68
1.85779063e-68
2.512711479e-68
3.759568981e-68
6.306948733e-68
1.175217501e-67
2.423227534e-67
5.536495444e-67
1.401639419e-66
3.933995154e-66
1.224457499e-65
4.22478578e-65
1.617699095e-64
6.878821612e-64
3.243498019e-63
1.874132268e-62
2.369124908e-61
9.754255037e-60
5.847189241e-58
3.722917758e-56
2.279364725e-54
1.357384949e-52
7.088505245e-51
4.367839755e-49
5.016798235e-47
6.490178296e-45
1.851717051e-43
0
4.653134512e-33
1.284617483e-33
4.58450644e-46
4.883330813e-27
4.866441373e-28
2.286968344e-30
5.105875256e-33
3.082693996e-64
0.0007885825241
-0.00316665386
0.5984925178
2.804443976e-64
2.959310593e-64
3.617840284e-64
4.855805516e-64
7.197861375e-64
1.194775826e-63
2.199828852e-63
4.478040592e-63
1.009663118e-62
2.52244107e-62
6.988346966e-62
2.148615374e-61
7.332715671e-61
2.781087479e-60
1.173943192e-59
5.585789214e-59
3.693583235e-58
7.110243643e-57
3.514636037e-55
2.161955584e-53
1.341762614e-51
8.146313486e-50
4.617414391e-48
2.396120883e-46
1.464801912e-44
1.866215619e-42
2.197012494e-40
5.770269097e-39
0
4.873548238e-31
1.264867439e-33
6.528705419e-28
6.049553568e-24
5.92351007e-25
7.995953741e-27
2.459151147e-28
0
0.0008016429088
-0.003149236509
0.6005306303
5.297346477e-60
5.575100835e-60
6.773161225e-60
9.013156263e-60
1.322134936e-59
2.168691685e-59
3.939626584e-59
7.904326545e-59
1.755780789e-58
4.321060063e-58
1.179443e-57
3.57556273e-57
1.204840225e-56
4.517841019e-56
1.893810344e-55
9.316221829e-55
7.931720165e-54
2.296365717e-52
1.22718651e-50
7.614068905e-49
4.551922264e-47
2.73784846e-45
1.463940811e-43
7.631174188e-42
4.555400647e-40
6.521327228e-38
6.90451103e-36
1.675777933e-34
8.792149597e-35
3.244562799e-30
1.212085108e-33
3.708488603e-23
4.604592945e-22
6.654601623e-23
1.656681396e-22
2.020331192e-23
0
0.00083674385
-0.003096429801
0.6021566956
9.646067185e-56
1.011968394e-55
1.220837041e-55
1.609096398e-55
2.332884721e-55
3.775971818e-55
6.75637031e-55
1.333637225e-54
2.913150242e-54
7.049077354e-54
1.891702976e-53
5.642782482e-53
1.873750073e-52
6.934420832e-52
2.902593347e-51
1.565165374e-50
1.950766738e-49
7.594954033e-48
4.1131138e-46
2.538765523e-44
1.4541801e-42
8.60745876e-41
4.334453973e-39
2.276594677e-37
1.319471693e-35
2.115995471e-33
2.022564464e-31
4.505195957e-30
1.518296044e-29
3.224542302e-30
1.999074988e-22
1.71491869e-20
3.554864179e-21
1.526293397e-19
7.893940352e-18
8.949307183e-19
0
0.0009053344322
-0.003075730711
0.603902024
1.696768666e-51
1.773322522e-51
2.122542119e-51
2.767809046e-51
3.960503771e-51
6.315331219e-51
1.1109211e-50
2.15291682e-50
4.615343922e-50
1.095759102e-49
2.884494891e-49
8.447327869e-49
2.758279648e-48
1.007010368e-47
4.295945416e-47
2.843254071e-46
5.45490775e-45
2.472881481e-43