/*--------------------------------*- C++ -*----------------------------------*\
| =========                 |                                                 |
| \\      /  F ield         | OpenFOAM: The Open Source CFD Toolbox           |
|  \\    /   O peration     | Version:  v1912                                 |
|   \\  /    A nd           | Website:  www.openfoam.com                      |
|    \\/     M anipulation  |                                                 |
\*---------------------------------------------------------------------------*/
FoamFile
{
    version     2.0;
    format      ascii;
    class       volScalarField;
    location    "0.6";
    object      k.gas_0;
}
// * * * * * * * * * * * * * * * * * * * * * * * * * * * * * * * * * * * * * //

dimensions      [0 2 -2 0 0 0 0];


internalField   nonuniform List<scalar> 
4800
(
3.894891556e-07
5.049666421e-07
5.599390549e-07
5.95722709e-07
6.232010762e-07
6.465971213e-07
6.68089718e-07
6.890088047e-07
7.102778951e-07
7.326120251e-07
7.566189056e-07
7.828568537e-07
8.118718498e-07
8.442240138e-07
8.805088731e-07
9.213763799e-07
9.675496102e-07
1.019844508e-06
1.079191882e-06
1.146662829e-06
1.22349894e-06
1.311148947e-06
1.411313963e-06
1.526004294e-06
1.657611949e-06
1.809004738e-06
1.983650637e-06
2.185785451e-06
2.420643859e-06
2.694783892e-06
3.016573259e-06
3.396771752e-06
3.850408854e-06
4.39518342e-06
5.055849803e-06
5.975226905e-06
6.439907661e-06
1.05916559e-05
7.201278207e-07
2.158398383e-05
1.023303624e-06
1.381255202e-06
1.561528802e-06
1.678596602e-06
1.764160858e-06
1.83082637e-06
1.884971056e-06
1.93026273e-06
1.968997553e-06
2.002704294e-06
2.032449643e-06
2.059005987e-06
2.082949753e-06
2.10472219e-06
2.124668544e-06
2.1430643e-06
2.160133303e-06
2.17606068e-06
2.191002307e-06
2.205091949e-06
2.218446831e-06
2.231172133e-06
2.243364771e-06
2.255116773e-06
2.266518422e-06
2.277661419e-06
2.288642247e-06
2.299565923e-06
2.310550641e-06
2.321729599e-06
2.333294536e-06
2.345141941e-06
2.359702829e-06
2.363823405e-06
2.421689076e-06
2.290065172e-06
2.74802243e-06
1.640633234e-06
1.078567964e-05
5.646832232e-05
9.724149736e-07
1.310796268e-06
1.480961542e-06
1.591452827e-06
1.672253807e-06
1.735251741e-06
1.786451052e-06
1.829300724e-06
1.865958139e-06
1.89785885e-06
1.92600411e-06
1.951118658e-06
1.973743107e-06
1.994290932e-06
2.013085139e-06
2.030382725e-06
2.046391508e-06
2.061282022e-06
2.07519614e-06
2.088253476e-06
2.100556261e-06
2.11219315e-06
2.123242319e-06
2.133774068e-06
2.143853165e-06
2.153541113e-06
2.162898544e-06
2.171988003e-06
2.180877601e-06
2.189644604e-06
2.198397187e-06
2.207144467e-06
2.216987694e-06
2.221727058e-06
2.259846991e-06
2.139702268e-06
2.703444737e-06
6.285681973e-07
1.060890428e-05
7.688880594e-05
9.759741694e-07
1.315865012e-06
1.486796315e-06
1.597780856e-06
1.678936411e-06
1.742207162e-06
1.793627153e-06
1.836662619e-06
1.873481792e-06
1.905527429e-06
1.933805764e-06
1.959045088e-06
1.981788621e-06
2.002451787e-06
2.021359089e-06
2.038768708e-06
2.054889428e-06
2.069892608e-06
2.08392087e-06
2.09709455e-06
2.109516619e-06
2.121276533e-06
2.132453365e-06
2.14311844e-06
2.153337705e-06
2.163173998e-06
2.17268941e-06
2.181947957e-06
2.191018891e-06
2.199980535e-06
2.208929481e-06
2.217968363e-06
2.227301028e-06
2.236856357e-06
2.250769331e-06
2.227909522e-06
2.477768023e-06
9.704827943e-07
6.05689898e-06
9.398170165e-05
9.756514912e-07
1.31540221e-06
1.486248629e-06
1.597177779e-06
1.678291985e-06
1.741529877e-06
1.792922642e-06
1.835934819e-06
1.872733553e-06
1.904760865e-06
1.933022457e-06
1.95824622e-06
1.980975048e-06
2.001624089e-06
2.020517591e-06
2.037913482e-06
2.054020281e-06
2.069009056e-06
2.083022091e-06
2.09617932e-06
2.108583221e-06
2.120322633e-06
2.131475836e-06
2.142113117e-06
2.152299029e-06
2.162094486e-06
2.171558848e-06
2.180752156e-06
2.189737616e-06
2.198585095e-06
2.207368462e-06
2.216230485e-06
2.224912299e-06
2.235512793e-06
2.242342286e-06
2.237904657e-06
2.434195423e-06
1.041289451e-06
9.029870947e-06
0.0001098514189
9.756162461e-07
1.315365677e-06
1.486196862e-06
1.597116185e-06
1.678222157e-06
1.741453081e-06
1.792840021e-06
1.835847408e-06
1.872642304e-06
1.904666655e-06
1.932926092e-06
1.958148431e-06
1.980876481e-06
2.001525292e-06
2.02041899e-06
2.03781536e-06
2.053922745e-06
2.068911996e-06
2.082925129e-06
2.096081746e-06
2.108483908e-06
2.120219929e-06
2.131367405e-06
2.141995731e-06
2.15216825e-06
2.161944216e-06
2.171380646e-06
2.180534193e-06
2.189463049e-06
2.198229813e-06
2.206894101e-06
2.215607638e-06
2.22388935e-06
2.234938028e-06
2.238155146e-06
2.233492757e-06
2.447581615e-06
3.217195928e-06
1.896349812e-05
0.0001264292292
9.755607502e-07
1.315299921e-06
1.486107922e-06
1.597012291e-06
1.678106013e-06
1.741326637e-06
1.792704891e-06
1.835704971e-06
1.872493767e-06
1.904513089e-06
1.932768452e-06
1.957987558e-06
1.980713097e-06
2.001359988e-06
2.020252206e-06
2.037647352e-06
2.053753551e-06
2.068741389e-06
2.082752559e-06
2.095906266e-06
2.108304075e-06
2.12003368e-06
2.131171892e-06
2.141787084e-06
2.151941267e-06
2.161691901e-06
2.171093563e-06
2.180199524e-06
2.189063275e-06
2.197740187e-06
2.206285556e-06
2.214805704e-06
2.222893836e-06
2.234577401e-06
2.225916026e-06
2.286441894e-06
2.32966134e-06
2.239050101e-06
1.468268124e-05
0.0001411841767
9.755080507e-07
1.315240484e-06
1.486024006e-06
1.596912725e-06
1.67799348e-06
1.741203118e-06
1.792572074e-06
1.835564324e-06
1.872346596e-06
1.904360569e-06
1.932611641e-06
1.957827397e-06
1.980550403e-06
2.001195432e-06
2.020086295e-06
2.037480391e-06
2.053585604e-06
2.068572225e-06
2.082581589e-06
2.095732463e-06
2.108125875e-06
2.119848852e-06
2.130977369e-06
2.141578747e-06
2.151713644e-06
2.161437763e-06
2.170803375e-06
2.179860686e-06
2.18865913e-06
2.197248466e-06
2.205680086e-06
2.214029247e-06
2.221976529e-06
2.233913737e-06
2.214417618e-06
2.372889506e-06
1.86131972e-06
1.193162418e-06
4.305595541e-05
0.0001574200926
9.754563203e-07
1.315184584e-06
1.485941768e-06
1.59681378e-06
1.677880582e-06
1.741078336e-06
1.792437199e-06
1.835420936e-06
1.872196116e-06
1.904204286e-06
1.932450724e-06
1.957662893e-06
1.980383228e-06
2.00102635e-06
2.019915885e-06
2.037309017e-06
2.053413365e-06
2.068398899e-06
2.082406566e-06
2.095554661e-06
2.107943639e-06
2.119659825e-06
2.130778335e-06
2.141365424e-06
2.15148042e-06
2.161177362e-06
2.170506403e-06
2.179515064e-06
2.188249346e-06
2.196755818e-06
2.205069848e-06
2.213379074e-06
2.220305868e-06
2.238076134e-06
2.18223077e-06
2.525524796e-06
1.126920119e-06
4.667477929e-06
7.160923965e-05
0.0001749017017
9.754056683e-07
1.315132544e-06
1.48586159e-06
1.596715894e-06
1.677767806e-06
1.74095282e-06
1.792300838e-06
1.835275424e-06
1.87204299e-06
1.904044955e-06
1.932286476e-06
1.957494895e-06
1.980212506e-06
2.000853771e-06
2.019742124e-06
2.037134514e-06
2.053238278e-06
2.068223044e-06
2.082229347e-06
2.095374982e-06
2.107759807e-06
2.119469424e-06
2.130578079e-06
2.141150973e-06
2.151246166e-06
2.160916147e-06
2.170209164e-06
2.179170445e-06
2.187843253e-06
2.196271616e-06
2.204478839e-06
2.212760328e-06
2.218461547e-06
2.24579738e-06
2.11963597e-06
2.837609724e-06
2.38669732e-06
1.225548336e-05
0.0001072713557
0.0001941367664
9.753560844e-07
1.315084494e-06
1.4857836e-06
1.596619222e-06
1.677655326e-06
1.740826765e-06
1.792163209e-06
1.83512803e-06
1.871887491e-06
1.903882886e-06
1.932119255e-06
1.957323814e-06
1.980038717e-06
2.00067826e-06
2.019565676e-06
2.036957668e-06
2.053061275e-06
2.068045766e-06
2.08205124e-06
2.095194977e-06
2.107576215e-06
2.119279824e-06
2.130379182e-06
2.140938464e-06
2.15101453e-06
2.160658433e-06
2.169916731e-06
2.17883273e-06
2.187447508e-06
2.195803156e-06
2.203912674e-06
2.212148265e-06
2.217191606e-06
2.246951018e-06
2.119989932e-06
2.692025903e-06
2.048210055e-06
5.087237482e-06
0.0001346472881
0.0002145490773
9.753075998e-07
1.315040637e-06
1.485708007e-06
1.596524001e-06
1.677543404e-06
1.740700454e-06
1.79202462e-06
1.834979091e-06
1.87172999e-06
1.903718492e-06
1.93194952e-06
1.95715017e-06
1.979862456e-06
2.000500503e-06
2.019387335e-06
2.036779404e-06
2.052883436e-06
2.067868327e-06
2.081873724e-06
2.095016372e-06
2.107394879e-06
2.119093377e-06
2.130184382e-06
2.140731082e-06
2.150789196e-06
2.160408439e-06
2.16963391e-06
2.178507295e-06
2.187067904e-06
2.195355761e-06
2.203380394e-06
2.211504364e-06
2.216832062e-06
2.239989329e-06
2.174078579e-06
2.473001086e-06
5.921178759e-07
1.515396829e-05
0.000165117306
0.0002359256627
9.752602776e-07
1.315001232e-06
1.485635071e-06
1.596430523e-06
1.677432356e-06
1.740574231e-06
1.791885438e-06
1.834829003e-06
1.871570916e-06
1.903552241e-06
1.931777794e-06
1.956974551e-06
1.979684386e-06
2.000321256e-06
2.019207974e-06
2.03660073e-06
2.052705931e-06
2.067692084e-06
2.081698373e-06
2.094840994e-06
2.107217912e-06
2.118912518e-06
2.129996479e-06
2.140532033e-06
2.15057378e-06
2.160170233e-06
2.169365213e-06
2.178199016e-06
2.186709351e-06
2.194933928e-06
2.202889501e-06
2.210808283e-06
2.217277851e-06
2.230442342e-06
2.214003117e-06
2.301940376e-06
2.135838992e-06
2.393203511e-05
0.000195315099
0.0002583409939
9.752142162e-07
1.314966601e-06
1.485565114e-06
1.596339145e-06
1.677322567e-06
1.740448503e-06
1.791746099e-06
1.83467823e-06
1.871410769e-06
1.903384676e-06
1.931604669e-06
1.956797611e-06
1.979505244e-06
2.000141354e-06
2.019028545e-06
2.03642274e-06
2.05253002e-06
2.067518493e-06
2.081526868e-06
2.094670776e-06
2.107047532e-06
2.11873978e-06
2.129818354e-06
2.140344552e-06
2.150371885e-06
2.15994779e-06
2.169114937e-06
2.177912337e-06
2.186376234e-06
2.194542791e-06
2.20243199e-06
2.210219887e-06
2.217031899e-06
2.226655256e-06
2.232209554e-06
2.206398737e-06
2.478664764e-06
3.421290803e-05
0.0002257613599
0.0002818898785
9.751695533e-07
1.314937131e-06
1.485498523e-06
1.596250294e-06
1.677214493e-06
1.740323754e-06
1.791607112e-06
1.834527312e-06
1.871250122e-06
1.903216414e-06
1.931430816e-06
1.956620089e-06
1.979325849e-06
1.999961717e-06
2.01885009e-06
2.036246623e-06
2.052357065e-06
2.067349118e-06
2.081361e-06
2.09450777e-06
2.106886077e-06
2.118577814e-06
2.129652988e-06
2.140171926e-06
2.150187149e-06
2.159745058e-06
2.168887216e-06
2.177651457e-06
2.186072923e-06
2.194186148e-06
2.202019147e-06
2.209636509e-06
2.217232365e-06
2.220120514e-06
2.26384736e-06
2.090027691e-06
3.211195751e-06
3.329633519e-06
0.0002573721291
0.0003065221993
9.751264699e-07
1.314913285e-06
1.485435763e-06
1.596164476e-06
1.677108672e-06
1.74020055e-06
1.791469072e-06
1.834376873e-06
1.871089636e-06
1.903048157e-06
1.93125699e-06
1.956442807e-06
1.979147106e-06
1.999783356e-06
2.018673746e-06
2.036073669e-06
2.052188537e-06
2.067185636e-06
2.081202689e-06
2.094354162e-06
2.106736027e-06
2.118429417e-06
2.12950348e-06
2.140017573e-06
2.150023307e-06
2.159566044e-06
2.168686252e-06
2.177420744e-06
2.185803778e-06
2.193868443e-06
2.201647911e-06
2.20915318e-06
2.216861861e-06
2.218830987e-06
2.27692825e-06
2.023066439e-06
9.772769799e-07
9.02721263e-06
0.0002900074505
0.0003322213215
9.750851954e-07
1.314895603e-06
1.485377376e-06
1.596082283e-06
1.677005732e-06
1.74007955e-06
1.791332667e-06
1.834227634e-06
1.870930067e-06
1.902880706e-06
1.931084047e-06
1.956266688e-06
1.978970027e-06
1.999607387e-06
2.018500763e-06
2.035905286e-06
2.052026031e-06
2.067029866e-06
2.081054001e-06
2.094212301e-06
2.106600042e-06
2.11829757e-06
2.129373112e-06
2.139885124e-06
2.149884278e-06
2.159414922e-06
2.168516457e-06
2.177224742e-06
2.18557325e-06
2.193594018e-06
2.201323187e-06
2.208720484e-06
2.216767415e-06
2.216189585e-06
2.280514037e-06
2.007060089e-06
1.134129606e-06
1.471644862e-05
0.0003230837423
0.000359032025
9.750460133e-07
1.314884717e-06
1.485324e-06
1.596004407e-06
1.676906403e-06
1.739961519e-06
1.791198694e-06
1.834080425e-06
1.870772281e-06
1.90271497e-06
1.930912951e-06
1.95609277e-06
1.978795736e-06
1.99943505e-06
2.018332517e-06
2.035743018e-06
2.051871294e-06
2.066883785e-06
2.080917184e-06
2.094084733e-06
2.106480991e-06
2.118185468e-06
2.12926546e-06
2.139778521e-06
2.149774297e-06
2.159296147e-06
2.168382517e-06
2.177068272e-06
2.185386151e-06
2.19336676e-06
2.201058187e-06
2.208252818e-06
2.217726125e-06
2.204829185e-06
2.347178892e-06
1.687514272e-06
1.753847901e-06
2.239480331e-05
0.0003568452898
0.0003869912241
9.750092672e-07
1.314881354e-06
1.485276373e-06
1.595931649e-06
1.676811535e-06
1.739847343e-06
1.791068075e-06
1.833936201e-06
1.870617273e-06
1.902551992e-06
1.930744802e-06
1.955922222e-06
1.978625499e-06
1.999267725e-06
2.018170538e-06
2.035588574e-06
2.051726246e-06
2.066749569e-06
2.080794699e-06
2.093974242e-06
2.106382e-06
2.118096603e-06
2.129184444e-06
2.139702066e-06
2.149698045e-06
2.159214695e-06
2.16828955e-06
2.176956596e-06
2.185247729e-06
2.193192413e-06
2.200848718e-06
2.207861716e-06
2.218722426e-06
2.19288977e-06
2.416285275e-06
1.483484489e-06
1.182615429e-06
3.056406082e-05
0.0003912122148
0.0004161320999
9.749753678e-07
1.314886349e-06
1.485235347e-06
1.595864936e-06
1.676722105e-06
1.739738046e-06
1.790941873e-06
1.833796063e-06
1.870466186e-06
1.90239296e-06
1.930580851e-06
1.955756373e-06
1.978460742e-06
1.999106965e-06
2.018016533e-06
2.035443856e-06
2.051593024e-06
2.066629627e-06
2.080689277e-06
2.093883914e-06
2.106306543e-06
2.118034896e-06
2.129134401e-06
2.139660515e-06
2.149660702e-06
2.159176161e-06
2.1682434e-06
2.176895615e-06
2.185163941e-06
2.193076991e-06
2.20069703e-06
2.207607479e-06
2.219010739e-06
2.187800983e-06
2.450879619e-06
1.23650064e-06
2.215178234e-06
4.030002676e-05
0.0004259473599
0.000446458652
9.74944801e-07
1.314900655e-06
1.485201904e-06
1.595805336e-06
1.676639245e-06
1.739634809e-06
1.790821313e-06
1.833661283e-06
1.870320334e-06
1.902239245e-06
1.93042253e-06
1.955596738e-06
1.978303085e-06
1.998954525e-06
2.01787243e-06
2.035311002e-06
2.051474024e-06
2.066526662e-06
2.080603974e-06
2.093817206e-06
2.106258532e-06
2.118004749e-06
2.129120225e-06
2.139659264e-06
2.149668134e-06
2.159186852e-06
2.168250791e-06
2.176892214e-06
2.185141663e-06
2.193026995e-06
2.200614173e-06
2.207430723e-06
2.219334541e-06
2.183629054e-06
2.470239089e-06
1.158461876e-06
2.620601368e-06
5.21594103e-05
0.0004608465784
0.0004779678371
9.749181365e-07
1.314925354e-06
1.485177166e-06
1.595754075e-06
1.676564254e-06
1.739538994e-06
1.790707812e-06
1.833533324e-06
1.870181236e-06
1.90209242e-06
1.930271484e-06
1.955445052e-06
1.978154378e-06
1.998812405e-06
2.017740417e-06
2.035192437e-06
2.051371958e-06
2.06644373e-06
2.08054225e-06
2.09377804e-06
2.106242411e-06
2.118011163e-06
2.129147513e-06
2.139704512e-06
2.149727124e-06
2.159254062e-06
2.168319473e-06
2.176954522e-06
2.185189039e-06
2.193050458e-06
2.200607035e-06
2.207347733e-06
2.219626264e-06
2.180222089e-06
2.488423872e-06
1.040447717e-06
3.883407654e-06
6.552296182e-05
0.0004957059193
0.0005107401537
9.748960372e-07
1.314961669e-06
1.485162418e-06
1.595712557e-06
1.676498628e-06
1.73945217e-06
1.790603002e-06
1.83341388e-06
1.870050643e-06
1.901954305e-06
1.930129614e-06
1.955303314e-06
1.978016752e-06
1.9986829e-06
2.017623e-06
2.035090932e-06
2.051289925e-06
2.066384322e-06
2.080508054e-06
2.093770905e-06
2.106263279e-06
2.118059896e-06
2.129222729e-06
2.139803455e-06
2.149845586e-06
2.159386374e-06
2.168458578e-06
2.177092134e-06
2.185315916e-06
2.193157105e-06
2.200683022e-06
2.207393396e-06
2.219554627e-06
2.181456504e-06
2.465090625e-06
1.196192409e-06
5.248216642e-06
8.274175827e-05
0.0005303525642
0.0005448493725
9.7487927e-07
1.315010979e-06
1.485159122e-06
1.595682391e-06
1.676444081e-06
1.739376143e-06
1.790508767e-06
1.833304906e-06
1.869930584e-06
1.901827008e-06
1.929999118e-06
1.955173841e-06
1.977892666e-06
1.99856866e-06
2.017523071e-06
2.035009684e-06
2.051231494e-06
2.066352457e-06
2.080505947e-06
2.093800994e-06
2.106327041e-06
2.118157645e-06
2.129353422e-06
2.139964531e-06
2.150032854e-06
2.159593977e-06
2.168679041e-06
2.177316548e-06
2.185534212e-06
2.193358761e-06
2.200854996e-06
2.207552008e-06
2.219559993e-06
2.180685821e-06
2.47842174e-06
1.145841975e-06
5.658990674e-06
9.109428456e-06
0.0005665877484
0.0005801449739
9.748687175e-07
1.315074833e-06
1.48516894e-06
1.595665411e-06
1.676402581e-06
1.739312988e-06
1.790427281e-06
1.833208666e-06
1.86982341e-06
1.901712973e-06
1.929882553e-06
1.955059322e-06
1.977784984e-06
1.998472765e-06
2.017443991e-06
2.034952402e-06
2.051200807e-06
2.066352805e-06
2.080541232e-06
2.093874356e-06
2.106440601e-06
2.118312263e-06
2.129548481e-06
2.140197725e-06
2.150300034e-06
2.159889066e-06
2.16899406e-06
2.177641766e-06
2.185858476e-06
2.193670146e-06
2.201138689e-06
2.207826645e-06
2.219592527e-06
2.18116661e-06
2.480967411e-06
1.153316144e-06
6.018303553e-06
1.774384062e-05
0.0006036938363
0.0006165601838
9.748653918e-07
1.315154962e-06
1.485193754e-06
1.595663708e-06
1.676376377e-06
1.739265094e-06
1.79036105e-06
1.833127776e-06
1.869731847e-06
1.901615043e-06
1.929782895e-06
1.954962895e-06
1.977697046e-06
1.998398817e-06
2.017389685e-06
2.034923418e-06
2.051202699e-06
2.066390831e-06
2.080620131e-06
2.093998099e-06
2.106612083e-06
2.118533026e-06
2.129818448e-06
2.140514938e-06
2.150660434e-06
2.160286352e-06
2.169419662e-06
2.17808496e-06
2.18630672e-06
2.194109527e-06
2.201555463e-06
2.208198946e-06
2.220009662e-06
2.18030152e-06
2.491167712e-06
1.109370068e-06
6.691279965e-06
2.84467284e-05
0.0006410272494
0.0006541137481
9.748704491e-07
1.315253298e-06
1.485235696e-06
1.595679659e-06
1.676368042e-06
1.739235198e-06
1.790312962e-06
1.833065263e-06
1.869659059e-06
1.901536529e-06
1.929703617e-06
1.954888231e-06
1.977632766e-06
1.998351034e-06
2.017364757e-06
2.034927812e-06
2.05124286e-06
2.066472981e-06
2.080749995e-06
2.094180623e-06
2.106851116e-06
2.118830959e-06
2.1301759e-06
2.140930432e-06
2.15113009e-06
2.160803669e-06
2.169975416e-06
2.178667262e-06
2.186901341e-06
2.194699946e-06
2.202130857e-06
2.20866194e-06
2.221167274e-06
2.175273228e-06
2.524041349e-06
1.036996752e-06
7.633761846e-06
4.015327135e-05
0.000678381793
0.0006928333607
9.748851992e-07
1.315371975e-06
1.485297163e-06
1.595715958e-06
1.676380503e-06
1.739226435e-06
1.790286337e-06
1.833024623e-06
1.869608715e-06
1.901481282e-06
1.929648775e-06
1.954839627e-06
1.977596739e-06
1.998334381e-06
2.017374625e-06
2.03497159e-06
2.051328048e-06
2.066606916e-06
2.080939557e-06
2.094431926e-06
2.10716918e-06
2.119219254e-06
2.130635936e-06
2.141461386e-06
2.151728391e-06
2.16146268e-06
2.170685226e-06
2.179414674e-06
2.187670117e-06
2.195470955e-06
2.202887565e-06
2.209330155e-06
2.222292021e-06
2.171779096e-06
2.553338868e-06
9.653682889e-07
9.039315105e-06
5.369352789e-05
0.0007157158795
0.0007327805317
9.749110872e-07
1.315513303e-06
1.485380828e-06
1.595775638e-06
1.676417087e-06
1.73924239e-06
1.790284994e-06
1.833009895e-06
1.869585076e-06
1.901453796e-06
1.929623129e-06
1.954822149e-06
1.9775944e-06
1.99835475e-06
2.017425747e-06
2.035061963e-06
2.051466366e-06
2.066801791e-06
2.081199246e-06
2.09476398e-06
2.107580055e-06
2.119713784e-06
2.131216781e-06
2.142128586e-06
2.152478857e-06
2.162289737e-06
2.171578298e-06
2.180359142e-06
2.188647456e-06
2.196458721e-06
2.203866307e-06
2.210199351e-06
2.223851959e-06
2.166646557e-06
2.593563098e-06
8.367514666e-07
3.32286128e-07
6.888911205e-05
0.0007528176738
0.0007739913918
9.749497682e-07
1.315679916e-06
1.485489753e-06
1.595862188e-06
1.676481633e-06
1.739287217e-06
1.790313381e-06
1.833025812e-06
1.869593163e-06
1.901459397e-06
1.929632341e-06
1.954841853e-06
1.97763228e-06
1.998419222e-06
2.017525931e-06
2.035207591e-06
2.051667479e-06
2.067068533e-06
2.081541554e-06
2.095191161e-06
2.108100314e-06
2.12033369e-06
2.131940522e-06
2.142957352e-06
2.15341029e-06
2.163317289e-06
2.172690749e-06
2.181540318e-06
2.189876209e-06
2.197708803e-06
2.205114216e-06
2.211326102e-06
2.225776983e-06
2.160998169e-06
2.638209285e-06
5.787100747e-07
1.714340544e-06
8.605066708e-05
0.0007894715145
0.0008163720382
9.750037903e-07
1.315875568e-06
1.485627846e-06
1.595979866e-06
1.676578745e-06
1.739365867e-06
1.790376794e-06
1.833078013e-06
1.869638961e-06
1.901504432e-06
1.929683151e-06
1.95490594e-06
1.977718134e-06
1.998536194e-06
2.017684393e-06
2.03541863e-06
2.05194277e-06
2.067420114e-06
2.081981401e-06
2.095730719e-06
2.108749964e-06
2.121102175e-06
2.132834088e-06
2.143978858e-06
2.154558506e-06
2.164586066e-06
2.17406828e-06
2.183008653e-06
2.191411073e-06
2.199279507e-06
2.206691196e-06
2.2127861e-06
2.227991597e-06
2.156077651e-06
2.678053443e-06
3.680334038e-07
3.130258585e-06
0.0001028752523
0.0008255505625
0.0008598480578
9.750776436e-07
1.316104641e-06
1.485799889e-06
1.596133614e-06
1.676713649e-06
1.739483903e-06
1.790481152e-06
1.833172786e-06
1.869729142e-06
1.901595984e-06
1.929783094e-06
1.955022462e-06
1.977860616e-06
1.998715168e-06
2.017911607e-06
2.035706855e-06
2.05230565e-06
2.067871931e-06
2.08253663e-06
2.09640347e-06
2.109553367e-06
2.122047665e-06
2.133930606e-06
2.145231656e-06
2.155968064e-06
2.166147136e-06
2.175768774e-06
2.184828793e-06
2.19332295e-06
2.201246816e-06
2.208678387e-06
2.21464566e-06
2.230739422e-06
2.150608154e-06
2.722893744e-06
1.490132129e-07
5.158869841e-06
0.0001254723711
0.0008604624131
0.0009046967883
9.751761182e-07
1.316364553e-06
1.486008919e-06
1.596327348e-06
1.676890953e-06
1.739646483e-06
1.790632099e-06
1.833316249e-06
1.86987033e-06
1.901741258e-06
1.929940092e-06
1.955200174e-06
1.978069354e-06
1.998966936e-06
2.01821984e-06
2.036086331e-06
2.052772327e-06
2.068442738e-06
2.083229005e-06
2.097234819e-06
2.110540313e-06
2.1232051e-06
2.135270868e-06
2.146763166e-06
2.157693825e-06
2.168063513e-06
2.177864039e-06
2.187081779e-06
2.1957021e-06
2.203709293e-06
2.211180988e-06
2.217015971e-06
2.234034384e-06
2.146465779e-06
2.754627911e-06
2.653357401e-08
7.166681994e-06
1.594580507e-05
0.0008955817392
0.0009511647821
9.753026969e-07
1.316645697e-06
1.486255889e-06
1.596563936e-06
1.677114921e-06
1.739858909e-06
1.790835793e-06
1.833515341e-06
1.87007023e-06
1.90194876e-06
1.930163521e-06
1.955449498e-06
1.978356216e-06
1.999304904e-06
2.018624297e-06
2.036574409e-06
2.053362811e-06
2.069155739e-06
2.084085432e-06
2.098256036e-06
2.111747298e-06
2.124617314e-06
2.136905089e-06
2.148632062e-06
2.1598041e-06
2.170414016e-06
2.180444093e-06
2.189869322e-06
2.198662195e-06
2.206792499e-06
2.214333319e-06
2.220078178e-06
2.237407396e-06
2.151694417e-06
2.702687829e-06
3.319922432e-07
7.667459273e-06
2.270625917e-05
0.0009327493448
0.0009991640333
9.754659579e-07
1.316963804e-06
1.486548657e-06
1.59685048e-06
1.677393067e-06
1.740129426e-06
1.791101293e-06
1.833779961e-06
1.870339603e-06
1.902230131e-06
1.930465929e-06
1.955783947e-06
1.978735979e-06
1.999745484e-06
2.019143435e-06
2.037192047e-06
2.05410114e-06
2.070038739e-06
2.08513843e-06
2.09950544e-06
2.113219465e-06
2.126337512e-06
2.138896015e-06
2.15091221e-06
2.162385461e-06
2.173299407e-06
2.183624918e-06
2.193323094e-06
2.202350461e-06
2.210658558e-06
2.218313799e-06
2.223989971e-06
2.241537833e-06
2.160085469e-06
2.629558421e-06
7.295034792e-07
8.499313553e-06
3.236560877e-05
0.000969852279
0.001048670743
9.756666048e-07
1.317328591e-06
1.486895508e-06
1.597195947e-06
1.677734846e-06
1.740468183e-06
1.791439614e-06
1.834122109e-06
1.870691544e-06
1.902599663e-06
1.930862854e-06
1.956220289e-06
1.979226485e-06
2.000307774e-06
2.019798135e-06
2.0379629e-06
2.055014834e-06
2.071124196e-06
2.086426752e-06
2.101029412e-06
2.115012245e-06
2.12843183e-06
2.141322361e-06
2.153696789e-06
2.165547565e-06
2.176848107e-06
2.187555607e-06
2.197614252e-06
2.206960527e-06
2.215522533e-06
2.223357959e-06
2.228956422e-06
2.247856922e-06
2.151856859e-06
2.75516401e-06
3.021354569e-08
9.117667392e-06
4.430022465e-05
0.001006802995
0.001099733892
9.759075825e-07
1.317746688e-06
1.487303556e-06
1.59760852e-06
1.67814923e-06
1.740884982e-06
1.791861509e-06
1.83455363e-06
1.871139157e-06
1.90307197e-06
1.931370828e-06
1.956777551e-06
1.979849561e-06
2.001016348e-06
2.020615557e-06
2.03891682e-06
2.056137148e-06
2.072450618e-06
2.087996463e-06
2.102883475e-06
2.117192958e-06
2.130981752e-06
2.144282231e-06
2.157103226e-06
2.169430069e-06
2.181224922e-06
2.192428869e-06
2.202965614e-06
2.212746735e-06
2.221670997e-06
2.229770292e-06
2.235579333e-06
2.251937654e-06
2.194215524e-06
2.441698816e-06
1.415017328e-06
1.067802316e-05
5.645077599e-05
0.001043379529
0.0011524608
9.761887118e-07
1.318214886e-06
1.487775283e-06
1.598093343e-06
1.678643345e-06
1.74138857e-06
1.792377256e-06
1.835086376e-06
1.871695971e-06
1.903662408e-06
1.932007285e-06
1.957475729e-06
1.98062875e-06
2.001899705e-06
2.021630382e-06
2.040094736e-06
2.057514458e-06
2.074069676e-06
2.089905695e-06
2.105135407e-06
2.119843312e-06
2.134087011e-06
2.147897551e-06
2.161279881e-06
2.174211826e-06
2.186643267e-06
2.198496914e-06
2.209671604e-06
2.220048024e-06
2.229487443e-06
2.23800539e-06
2.243791605e-06
2.263206179e-06
2.177807329e-06
2.599733525e-06
1.002872165e-06
1.21898781e-05
7.158761365e-05
0.001079600227
0.001206930924
9.765172577e-07
1.318740569e-06
1.488318453e-06
1.59865915e-06
1.679227245e-06
1.741990449e-06
1.792999933e-06
1.835735181e-06
1.872378809e-06
1.904390055e-06
1.93279383e-06
1.958339091e-06
1.98159121e-06
2.002988547e-06
2.022878406e-06
2.041540446e-06
2.059202066e-06
2.076049246e-06
2.092233655e-06
2.10787624e-06
2.123068888e-06
2.137873217e-06
2.152321159e-06
2.166414187e-06
2.180121907e-06
2.193380583e-06
2.206091952e-06
2.218124882e-06
2.229321735e-06
2.239498026e-06
2.248628089e-06
2.254761489e-06
2.275016758e-06
2.186887124e-06
2.56165224e-06
1.757672165e-06
1.440938601e-05
8.81017895e-05
0.001115231053
0.001263220993
9.768986075e-07
1.319328114e-06
1.488940035e-06
1.599314478e-06
1.679911131e-06
1.742702579e-06
1.793743381e-06
1.836515964e-06
1.873205962e-06
1.905275984e-06
1.93375485e-06
1.959396035e-06
1.982770117e-06
2.004321401e-06
2.024403899e-06
2.043304773e-06
2.061259754e-06
2.078463242e-06
2.095074776e-06
2.111223475e-06
2.127010247e-06
2.142506736e-06
2.15775199e-06
2.17274802e-06
2.187457241e-06
2.201800617e-06
2.215655409e-06
2.228854431e-06
2.241191986e-06
2.252428759e-06
2.262455241e-06
2.269669732e-06
2.285950804e-06
2.233015887e-06
2.486875541e-06
1.417770716e-06
1.70200031e-05
0.0001065940319
0.001149879669
0.001321489258
9.773386865e-07
1.319982467e-06
1.489647507e-06
1.600068437e-06
1.680705937e-06
1.743537908e-06
1.794622798e-06
1.837446463e-06
1.874198071e-06
1.906344207e-06
1.9349183e-06
1.960679221e-06
1.984203853e-06
2.005943789e-06
2.026261347e-06
2.045452994e-06
2.063764779e-06
2.081402491e-06
2.098538057e-06
2.115313044e-06
2.131840148e-06
2.148203051e-06
2.164453253e-06
2.180602091e-06
2.196611275e-06
2.212387924e-06
2.227781911e-06
2.242582035e-06
2.256521106e-06
2.269289767e-06
2.280716749e-06
2.289063276e-06
2.307261977e-06
2.242706223e-06
2.574082835e-06
1.639490487e-06
2.105276477e-05
0.0001239284375
0.00118293162
0.001381935618
9.778354275e-07
1.320711641e-06
1.490447892e-06
1.600930177e-06
1.681622909e-06
1.744510004e-06
1.79565439e-06
1.838545917e-06
1.87537791e-06
1.907621644e-06
1.936316034e-06
1.962226427e-06
1.985937343e-06
2.007909312e-06
2.028514983e-06
2.048062642e-06
2.066811683e-06
2.084982751e-06
2.102764185e-06
2.120315694e-06
2.137769406e-06
2.15522846e-06
2.172763171e-06
2.190401438e-06
2.208113819e-06
2.225801909e-06
2.243289743e-06
2.26031328e-06
2.276524451e-06
2.291519207e-06
2.305137017e-06
2.314583188e-06
2.342364801e-06
2.22478756e-06
2.880271679e-06
1.236229178e-08
1.853227904e-05
0.0001375661316
0.001214388459
0.001444653893
9.783892841e-07
1.321521352e-06
1.491347698e-06
1.60190849e-06
1.682673199e-06
1.745632691e-06
1.796855083e-06
1.839834896e-06
1.876770347e-06
1.909138268e-06
1.937984133e-06
1.964081116e-06
1.988023055e-06
2.010281489e-06
2.031241969e-06
2.05122776e-06
2.070515472e-06
2.089345387e-06
2.107928247e-06
2.126449223e-06
2.145069104e-06
2.163922924e-06
2.18311486e-06
2.202703393e-06
2.222679979e-06
2.24295401e-06
2.263333309e-06
2.283494348e-06
2.302979368e-06
2.321272666e-06
2.338047133e-06
2.351576131e-06
2.374140755e-06
2.329117609e-06
2.545121346e-06
1.789321612e-06
1.117066133e-06
0.0001590863584
0.00124348596
0.001509537856
9.790034649e-07
1.322415754e-06
1.492353078e-06
1.603011703e-06
1.683867675e-06
1.746919839e-06
1.79824232e-06
1.841335122e-06
1.878402265e-06
1.910927209e-06
1.939963284e-06
1.966293154e-06
1.990522111e-06
2.013135378e-06
2.034534698e-06
2.055062385e-06
2.07501729e-06
2.094665597e-06
2.114248457e-06
2.133987029e-06
2.154084609e-06
2.174726421e-06
2.196074994e-06
2.218246801e-06
2.241279375e-06
2.265117204e-06
2.289579281e-06
2.314287759e-06
2.338643635e-06
2.361995566e-06
2.383681069e-06
2.404838935e-06
2.41664014e-06
2.457953636e-06
2.518307675e-06
1.345743204e-06
4.996908071e-06
0.0001800614671
0.001268702425
0.001576627418
9.796804492e-07
1.323398052e-06
1.493469208e-06
1.60424723e-06
1.685216478e-06
1.748384936e-06
1.799833688e-06
1.843069197e-06
1.880302401e-06
1.913024744e-06
1.942299085e-06
1.968919619e-06
1.993505717e-06
2.016559737e-06
2.038503963e-06
2.059705043e-06
2.080490552e-06
2.101160777e-06
2.12199809e-06
2.143274311e-06
2.165255496e-06
2.188205944e-06
2.212387405e-06
2.238022227e-06
2.265246042e-06
2.294107877e-06
2.324522573e-06
2.356099287e-06
2.388034677e-06
2.419415928e-06
2.449436743e-06
2.48096516e-06
2.495862132e-06
2.573510769e-06
2.82408379e-06
6.42068812e-07
2.791519976e-05
0.0002236140702
0.001292638024
0.00164631273
9.804216583e-07
1.324469956e-06
1.494699653e-06
1.605620914e-06
1.686728392e-06
1.750040502e-06
1.801646405e-06
1.845060204e-06
1.88250113e-06
1.915470303e-06
1.945042265e-06
1.972025483e-06
1.997056756e-06
2.020659764e-06
2.043282972e-06
2.065324506e-06
2.08714908e-06
2.109101511e-06
2.13151975e-06
2.154746671e-06
2.179140584e-06
2.205093153e-06
2.233036622e-06
2.263392692e-06
2.296512268e-06
2.332715086e-06
2.372161417e-06
2.414251512e-06
2.45732118e-06
2.499500947e-06
2.54108134e-06
2.580685436e-06
2.640413355e-06
2.670613445e-06
2.818793106e-06
1.89155937e-06