/*--------------------------------*- C++ -*----------------------------------*\
| =========                 |                                                 |
| \\      /  F ield         | OpenFOAM: The Open Source CFD Toolbox           |
|  \\    /   O peration     | Version:  v1912                                 |
|   \\  /    A nd           | Website:  www.openfoam.com                      |
|    \\/     M anipulation  |                                                 |
\*---------------------------------------------------------------------------*/
FoamFile
{
    version     2.0;
    format      ascii;
    class       volScalarField;
    location    "0.6";
    object      k.liquid_0;
}
// * * * * * * * * * * * * * * * * * * * * * * * * * * * * * * * * * * * * * //

dimensions      [0 2 -2 0 0 0 0];


internalField   nonuniform List<scalar> 
4800
(
3.897038175e-07
5.054350196e-07
5.605719706e-07
5.964785605e-07
6.240620973e-07
6.47556467e-07
6.691469804e-07
6.901679399e-07
7.115461364e-07
7.339992809e-07
7.581374234e-07
7.845210451e-07
8.136982204e-07
8.46231169e-07
8.827175795e-07
9.238096742e-07
9.702329465e-07
1.022805941e-06
1.082462282e-06
1.150276131e-06
1.227492421e-06
1.315563534e-06
1.416194573e-06
1.531400204e-06
1.663577193e-06
1.815598522e-06
1.990937762e-06
2.193836718e-06
2.429536394e-06
2.704601261e-06
3.027405467e-06
3.40871272e-06
3.863560116e-06
4.409648328e-06
5.071508759e-06
5.993509801e-06
6.454606513e-06
1.062488627e-05
3.544246924e-08
2.442222148e-05
1.023501465e-06
1.381888645e-06
1.5625047e-06
1.679835362e-06
1.765611963e-06
1.832454471e-06
1.88675009e-06
1.932172729e-06
1.971022751e-06
2.004831939e-06
2.034669219e-06
2.061308679e-06
2.085328078e-06
2.107169727e-06
2.12717974e-06
2.145634323e-06
2.162757939e-06
2.178736255e-06
2.193725626e-06
2.207860263e-06
2.221257806e-06
2.23402384e-06
2.24625568e-06
2.258045762e-06
2.269484785e-06
2.280664888e-06
2.291683023e-06
2.302644701e-06
2.313668654e-06
2.324888579e-06
2.33649736e-06
2.348387808e-06
2.363016187e-06
2.367116731e-06
2.425259846e-06
2.293101272e-06
2.752477596e-06
1.626962481e-06
1.033600848e-05
6.508448741e-05
9.725938859e-07
1.311391651e-06
1.481883955e-06
1.592626222e-06
1.673630242e-06
1.736797827e-06
1.788142253e-06
1.8311183e-06
1.867887333e-06
1.89988775e-06
1.928122911e-06
1.953319149e-06
1.976018317e-06
1.996634867e-06
2.015492589e-06
2.032849123e-06
2.048912814e-06
2.063854639e-06
2.077816842e-06
2.090919356e-06
2.103264684e-06
2.114941719e-06
2.126028844e-06
2.136596536e-06
2.146709721e-06
2.156430033e-06
2.165818216e-06
2.174936898e-06
2.183854244e-06
2.192647503e-06
2.201425015e-06
2.210193974e-06
2.220067355e-06
2.224775044e-06
2.263141752e-06
2.142069127e-06
2.709421944e-06
6.132360524e-07
9.736227673e-06
8.895928237e-05
9.761566944e-07
1.316467337e-06
1.487727976e-06
1.598965137e-06
1.68032496e-06
1.743766303e-06
1.79533214e-06
1.838494551e-06
1.875425781e-06
1.907571458e-06
1.935939937e-06
1.961261117e-06
1.984079462e-06
2.004811383e-06
2.023782174e-06
2.041250659e-06
2.057426154e-06
2.072480464e-06
2.086556587e-06
2.099775179e-06
2.112239488e-06
2.124039213e-06
2.135253634e-06
2.145954263e-06
2.156207208e-06
2.166075446e-06
2.175621184e-06
2.184908531e-06
2.194006803e-06
2.202994337e-06
2.211967707e-06
2.221029438e-06
2.230382936e-06
2.239951771e-06
2.253946552e-06
2.230620088e-06
2.483749109e-06
9.697179716e-07
4.390373963e-06
0.0001087197188
9.75833104e-07
1.316003133e-06
1.487178644e-06
1.598360236e-06
1.679678583e-06
1.743086976e-06
1.794625526e-06
1.837764607e-06
1.874675376e-06
1.906802721e-06
1.935154462e-06
1.960460097e-06
1.983263763e-06
2.003981593e-06
2.022938622e-06
2.040393422e-06
2.056555044e-06
2.071594998e-06
2.085655942e-06
2.098858132e-06
2.111304318e-06
2.123083581e-06
2.13427441e-06
2.144947275e-06
2.155166889e-06
2.164994305e-06
2.174489001e-06
2.183711112e-06
2.192723907e-06
2.201597293e-06
2.210405014e-06
2.21929053e-06
2.227990738e-06
2.238614363e-06
2.245505676e-06
2.240616331e-06
2.44024397e-06
1.031035925e-06
7.363062816e-06
0.0001272227087
9.757974668e-07
1.315966178e-06
1.487126519e-06
1.598298315e-06
1.679608459e-06
1.743009915e-06
1.794542672e-06
1.837676999e-06
1.874583967e-06
1.906708392e-06
1.935058022e-06
1.960362278e-06
1.983165213e-06
2.003882858e-06
2.02284013e-06
2.040295455e-06
2.056457703e-06
2.071498169e-06
2.085559241e-06
2.098760842e-06
2.111205305e-06
2.122981182e-06
2.13416628e-06
2.144830174e-06
2.15503637e-06
2.164844259e-06
2.174310979e-06
2.183493281e-06
2.192449424e-06
2.201242061e-06
2.209930664e-06
2.218667964e-06
2.226967029e-06
2.238044348e-06
2.241320504e-06
2.236243751e-06
2.447540456e-06
3.168781974e-06
1.739748603e-05
0.0001463481374
9.757414963e-07
1.315899858e-06
1.487037055e-06
1.598193911e-06
1.679491822e-06
1.742882998e-06
1.794407095e-06
1.837534144e-06
1.874435047e-06
1.906554481e-06
1.93490008e-06
1.960201148e-06
1.98300162e-06
2.003717394e-06
2.022673232e-06
2.040127377e-06
2.056288481e-06
2.071327571e-06
2.085386711e-06
2.098585422e-06
2.111025544e-06
2.122795006e-06
2.133970827e-06
2.144621565e-06
2.154809387e-06
2.164591897e-06
2.174023793e-06
2.183158447e-06
2.192049426e-06
2.200752157e-06
2.209321871e-06
2.217865773e-06
2.225969214e-06
2.237706763e-06
2.228966923e-06
2.289417236e-06
2.332021945e-06
2.202121037e-06
1.276488826e-05
0.0001630410522
9.756883021e-07
1.315839836e-06
1.486952607e-06
1.598093833e-06
1.679378799e-06
1.742759015e-06
1.794273843e-06
1.837393096e-06
1.874287515e-06
1.906401644e-06
1.934742999e-06
1.960040768e-06
1.982838758e-06
2.003552724e-06
2.022507259e-06
2.039960404e-06
2.056120566e-06
2.071158477e-06
2.085215841e-06
2.09841174e-06
2.110847473e-06
2.122610303e-06
2.133776411e-06
2.144413302e-06
2.154581793e-06
2.164337731e-06
2.173733509e-06
2.182819439e-06
2.191645042e-06
2.20026014e-06
2.208716093e-06
2.217089175e-06
2.225048796e-06
2.237075146e-06
2.217233782e-06
2.376971332e-06
1.866922032e-06
1.024557179e-06
4.217982756e-05
0.0001819606744
9.756360478e-07
1.315783316e-06
1.48686981e-06
1.597994351e-06
1.679265389e-06
1.74263375e-06
1.794138517e-06
1.837249296e-06
1.874136665e-06
1.90624504e-06
1.934581813e-06
1.959876051e-06
1.982671428e-06
2.003383544e-06
2.022336809e-06
2.039789043e-06
2.055948388e-06
2.070985253e-06
2.085040951e-06
2.098234091e-06
2.110665397e-06
2.122421429e-06
2.133577507e-06
2.144200068e-06
2.154348604e-06
2.164077295e-06
2.173436423e-06
2.182473621e-06
2.19123498e-06
2.199767169e-06
2.208105294e-06
2.216440284e-06
2.223365934e-06
2.241311436e-06
2.18465112e-06
2.53152288e-06
1.129713403e-06
4.423269372e-06
7.098033264e-05
0.0002021540369
9.755848413e-07
1.315730618e-06
1.486789042e-06
1.597895903e-06
1.679152078e-06
1.74250773e-06
1.79400169e-06
1.837103359e-06
1.873983162e-06
1.906085385e-06
1.934417299e-06
1.959707848e-06
1.982500565e-06
2.003210888e-06
2.022163033e-06
2.039614584e-06
2.055773398e-06
2.07080954e-06
2.084863908e-06
2.09805461e-06
2.110481768e-06
2.122231221e-06
2.133377416e-06
2.143985738e-06
2.154114407e-06
2.16381606e-06
2.173139075e-06
2.182128798e-06
2.19082859e-06
2.19928261e-06
2.207513684e-06
2.215823136e-06
2.221503704e-06
2.249148364e-06
2.121559963e-06
2.838897366e-06
2.569078197e-06
1.185412022e-05
0.0001067176769
0.0002242493705
9.755346696e-07
1.315681871e-06
1.486710432e-06
1.597798639e-06
1.679039038e-06
1.742381149e-06
1.793863574e-06
1.836955524e-06
1.873827274e-06
1.905922985e-06
1.934249811e-06
1.959536567e-06
1.982326647e-06
2.003035319e-06
2.021986596e-06
2.039437815e-06
2.055596532e-06
2.070632448e-06
2.084686027e-06
2.097874853e-06
2.110298432e-06
2.122041866e-06
2.133178733e-06
2.143773392e-06
2.153882865e-06
2.163558352e-06
2.172846549e-06
2.181790884e-06
2.190432543e-06
2.198813769e-06
2.206946956e-06
2.21521131e-06
2.220232355e-06
2.250261565e-06
2.122499943e-06
2.693312877e-06
2.042926494e-06
4.540332654e-06
0.0001339789212
0.0002473437089
9.754855619e-07
1.315637276e-06
1.486634182e-06
1.597702792e-06
1.678926524e-06
1.742254284e-06
1.793724473e-06
1.836806123e-06
1.873669369e-06
1.90575825e-06
1.934079806e-06
1.959362729e-06
1.982150269e-06
2.002857524e-06
2.021808296e-06
2.039259664e-06
2.055418874e-06
2.070455247e-06
2.084508791e-06
2.097696557e-06
2.110117415e-06
2.121855726e-06
2.132984209e-06
2.143566231e-06
2.153657675e-06
2.163308408e-06
2.172563667e-06
2.18146527e-06
2.190052643e-06
2.198365972e-06
2.206414253e-06
2.214565609e-06
2.219889324e-06
2.243160277e-06
2.177019224e-06
2.478740672e-06
5.701425361e-07
1.456378432e-05
0.0001645166169
0.0002713908735
9.754375788e-07
1.31559709e-06
1.486560552e-06
1.597608654e-06
1.678814851e-06
1.742127475e-06
1.793584752e-06
1.836655549e-06
1.873509871e-06
1.905591647e-06
1.933907804e-06
1.959186916e-06
1.981972093e-06
2.002678259e-06
2.021629004e-06
2.039081143e-06
2.055241598e-06
2.070279298e-06
2.084333786e-06
2.097521559e-06
2.109940842e-06
2.121675253e-06
2.132796659e-06
2.143367477e-06
2.153442473e-06
2.163070312e-06
2.17229496e-06
2.181156848e-06
2.189693814e-06
2.197943723e-06
2.205923081e-06
2.213866625e-06
2.220351094e-06
2.233551022e-06
2.217151585e-06
2.304637522e-06
2.089979576e-06
2.324626189e-05
0.0001947287154
0.0002965165897
9.753908163e-07
1.315561633e-06
1.48648986e-06
1.597516576e-06
1.678704399e-06
1.742001126e-06
1.79344484e-06
1.836504262e-06
1.873349278e-06
1.905423712e-06
1.933734395e-06
1.959009785e-06
1.981792856e-06
2.002498362e-06
2.021449678e-06
2.038903351e-06
2.055065971e-06
2.070106068e-06
2.084162702e-06
2.097351804e-06
2.109770946e-06
2.121502993e-06
2.132618981e-06
2.143180384e-06
2.153240879e-06
2.16284806e-06
2.172044741e-06
2.18087008e-06
2.189360456e-06
2.197552191e-06
2.205465156e-06
2.213276775e-06
2.220110857e-06
2.229724417e-06
2.235546472e-06
2.208595838e-06
2.408306258e-06
3.332432432e-05
0.0002252043234
0.0003229072487
9.753454097e-07
1.315531291e-06
1.486422492e-06
1.597426982e-06
1.67859562e-06
1.741875715e-06
1.793305245e-06
1.836352798e-06
1.873188158e-06
1.905255061e-06
1.933560246e-06
1.958832069e-06
1.981613374e-06
2.002318751e-06
2.02127136e-06
2.038727479e-06
2.054893362e-06
2.069937126e-06
2.083997341e-06
2.097189358e-06
2.109610079e-06
2.121341617e-06
2.132454175e-06
2.14300826e-06
2.153056556e-06
2.16264562e-06
2.171817169e-06
2.180609186e-06
2.189056959e-06
2.197195176e-06
2.205051982e-06
2.212691272e-06
2.220320834e-06
2.223140254e-06
2.26733299e-06
2.090871273e-06
3.206174506e-06
1.441098146e-06
0.0002565448632
0.0003505784298
9.753015377e-07
1.315506523e-06
1.486358908e-06
1.597340374e-06
1.678489048e-06
1.741751806e-06
1.793166554e-06
1.836201775e-06
1.873027167e-06
1.905086392e-06
1.933386111e-06
1.958654591e-06
1.981434557e-06
2.002140439e-06
2.021095192e-06
2.038554824e-06
2.054725248e-06
2.069774164e-06
2.083839636e-06
2.097036422e-06
2.10946074e-06
2.121193941e-06
2.132305367e-06
2.142854548e-06
2.152893262e-06
2.162467029e-06
2.17161647e-06
2.180378557e-06
2.188787704e-06
2.196877157e-06
2.204680316e-06
2.212207151e-06
2.219949947e-06
2.221826925e-06
2.280445238e-06
2.029983828e-06
9.641962981e-07
7.596865201e-06
0.0002891590143
0.0003794650116
9.752594272e-07
1.315487873e-06
1.486299649e-06
1.597257342e-06
1.678385307e-06
1.741630051e-06
1.793029452e-06
1.836051911e-06
1.872867058e-06
1.9049185e-06
1.933212841e-06
1.958478271e-06
1.981257411e-06
2.001964545e-06
2.020922426e-06
2.0383868e-06
2.054563236e-06
2.069619009e-06
2.083691669e-06
2.096895363e-06
2.109325612e-06
2.121062972e-06
2.13217586e-06
2.142722907e-06
2.152754947e-06
2.162316488e-06
2.17144709e-06
2.180182771e-06
2.188557173e-06
2.196602493e-06
2.20435525e-06
2.211772712e-06
2.219862565e-06
2.219147e-06
2.284254811e-06
2.012586831e-06
1.113517021e-06
1.32598274e-05
0.0003222092502
0.0004096635234
9.752193594e-07
1.315475968e-06
1.48624535e-06
1.597178573e-06
1.678285124e-06
1.741511212e-06
1.792894731e-06
1.835904029e-06
1.872708692e-06
1.904752293e-06
1.933041399e-06
1.958304144e-06
1.981083063e-06
2.001792308e-06
2.020754445e-06
2.038224958e-06
2.05440908e-06
2.069473654e-06
2.083555702e-06
2.096768747e-06
2.109207584e-06
2.12095193e-06
2.132069266e-06
2.142617313e-06
2.152645882e-06
2.162198492e-06
2.17131375e-06
2.180026686e-06
2.188370215e-06
2.19637509e-06
2.204090155e-06
2.211301464e-06
2.220844457e-06
2.207633935e-06
2.351632971e-06
1.692310001e-06
1.708601096e-06
2.088231587e-05
0.0003559601658
0.0004412326937
9.751816755e-07
1.315471536e-06
1.486196746e-06
1.597104867e-06
1.678189342e-06
1.741396169e-06
1.792763307e-06
1.835759079e-06
1.872553058e-06
1.904588807e-06
1.93287288e-06
1.95813338e-06
1.980912777e-06
2.001625113e-06
2.02059278e-06
2.038071014e-06
2.054264713e-06
2.069340287e-06
2.083434218e-06
2.096659383e-06
2.109109814e-06
2.120864341e-06
2.131989536e-06
2.142542109e-06
2.152570793e-06
2.162118062e-06
2.171221616e-06
2.17991561e-06
2.188232123e-06
2.19620076e-06
2.20388064e-06
2.210907325e-06
2.221860243e-06
2.195586157e-06
2.420885567e-06
1.4903851e-06
1.122246432e-06
2.895195581e-05
0.0003903170289
0.0004742182136
9.751467843e-07
1.315475413e-06
1.486154688e-06
1.597037146e-06
1.678098937e-06
1.741285942e-06
1.792636238e-06
1.83561816e-06
1.872401294e-06
1.904429228e-06
1.932708531e-06
1.957967304e-06
1.98074798e-06
2.001464515e-06
2.020439146e-06
2.037926879e-06
2.054132284e-06
2.069221337e-06
2.083329968e-06
2.096570382e-06
2.109035805e-06
2.120804162e-06
2.131941053e-06
2.142502096e-06
2.152534909e-06
2.162080849e-06
2.171176589e-06
2.179855501e-06
2.188148912e-06
2.196085574e-06
2.203728939e-06
2.21065164e-06
2.222155563e-06
2.190445961e-06
2.455820392e-06
1.242142754e-06
2.130662684e-06
3.858550282e-05
0.000425049026
0.0005086371124
9.751151695e-07
1.315488551e-06
1.486120156e-06
1.596976475e-06
1.678015035e-06
1.741181708e-06
1.792514745e-06
1.835482534e-06
1.872254711e-06
1.90427492e-06
1.932549782e-06
1.95780743e-06
1.980590293e-06
2.001312271e-06
2.020295477e-06
2.037794703e-06
2.054014204e-06
2.069119526e-06
2.083246035e-06
2.096505234e-06
2.108989507e-06
2.120775838e-06
2.131928759e-06
2.142502726e-06
2.152544157e-06
2.162093223e-06
2.171185461e-06
2.179853315e-06
2.18812753e-06
2.196036099e-06
2.203646306e-06
2.210473568e-06
2.222486217e-06
2.186241217e-06
2.475269009e-06
1.163517181e-06
2.510331784e-06
5.032325563e-05
0.0004599609254
0.0005444928252
9.750873991e-07
1.315512036e-06
1.486094272e-06
1.596924078e-06
1.677938934e-06
1.741084824e-06
1.792400239e-06
1.835353662e-06
1.87211482e-06
1.904127454e-06
1.932398275e-06
1.957655491e-06
1.980441567e-06
2.001170386e-06
2.020163969e-06
2.037676921e-06
2.053913203e-06
2.069037933e-06
2.083185907e-06
2.096467894e-06
2.108975408e-06
2.120784422e-06
2.131958308e-06
2.142550263e-06
2.152605391e-06
2.162162557e-06
2.171256069e-06
2.179917273e-06
2.188176209e-06
2.196060459e-06
2.203639684e-06
2.210389897e-06
2.222782001e-06
2.182821218e-06
2.493474976e-06
1.043981103e-06
3.743273328e-06
6.360356056e-05
0.0004948467477
0.0005818596643
9.750641347e-07
1.315547091e-06
1.48607832e-06
1.596881359e-06
1.677872124e-06
1.740996854e-06
1.792294348e-06
1.835233232e-06
1.87198337e-06
1.903988645e-06
1.932255908e-06
1.957513487e-06
1.980303934e-06
2.001041159e-06
2.020047137e-06
2.037576322e-06
2.053832399e-06
2.068980075e-06
2.083153568e-06
2.096462897e-06
2.108998657e-06
2.120835731e-06
2.132036235e-06
2.14265198e-06
2.152726614e-06
2.16229753e-06
2.171397645e-06
2.180057077e-06
2.188304913e-06
2.196168498e-06
2.203716547e-06
2.210436164e-06
2.222706411e-06
2.184107738e-06
2.469889225e-06
1.195979014e-06
5.067740419e-06
8.076129725e-05
0.0005295161672
0.000620897669
9.750461421e-07
1.315595101e-06
1.486073762e-06
1.596849924e-06
1.67781632e-06
1.740919603e-06
1.792198952e-06
1.835123196e-06
1.871862385e-06
1.903860597e-06
1.932124877e-06
1.957383732e-06
1.980179856e-06
2.000927248e-06
2.019947884e-06
2.037496115e-06
2.053775386e-06
2.068950002e-06
2.083153617e-06
2.096495482e-06
2.109065218e-06
2.120936531e-06
2.132170167e-06
2.142816409e-06
2.152917262e-06
2.162508443e-06
2.171621249e-06
2.180284358e-06
2.188525702e-06
2.196372185e-06
2.20388997e-06
2.210595812e-06
2.222714219e-06
2.183305652e-06
2.483346539e-06
1.144419288e-06
5.644904742e-06
3.640639948e-06
0.0005652119162
0.0006614850486
9.750343039e-07
1.315657617e-06
1.486082262e-06
1.596831609e-06
1.677773487e-06
1.740855143e-06
1.792116223e-06
1.835025813e-06
1.871754212e-06
1.903745753e-06
1.932007738e-06
1.957268918e-06
1.980072202e-06
2.000831743e-06
2.019869586e-06
2.037440033e-06
2.053746331e-06
2.068952421e-06
2.083191404e-06
2.096571757e-06
2.109182063e-06
2.121094758e-06
2.132369093e-06
2.143053646e-06
2.153188566e-06
2.162807633e-06
2.171940231e-06
2.180613285e-06
2.188853303e-06
2.196686427e-06
2.204175907e-06
2.2108722e-06
2.222748779e-06
2.183775573e-06
2.485865809e-06
1.151032602e-06
5.980282495e-06
1.402643809e-05
0.0006023010746
0.000703430355
9.750296324e-07
1.315736379e-06
1.486105708e-06
1.596828506e-06
1.677745876e-06
1.740805862e-06
1.792048664e-06
1.834943699e-06
1.871661578e-06
1.903646955e-06
1.931907467e-06
1.957172188e-06
1.979984318e-06
2.000758252e-06
2.019816183e-06
2.03741243e-06
2.053750105e-06
2.068992839e-06
2.083273206e-06
2.096698895e-06
2.109357402e-06
2.121319786e-06
2.132643666e-06
2.143375722e-06
2.153553984e-06
2.163209977e-06
2.172370806e-06
2.181061233e-06
2.189305947e-06
2.197129722e-06
2.204596062e-06
2.211246405e-06
2.223174803e-06
2.182862571e-06
2.496274388e-06
1.105415052e-06
6.627471574e-06
2.505917613e-05
0.0006396253632
0.0007467897485
9.750332857e-07
1.315833327e-06
1.486146234e-06
1.596842997e-06
1.677736061e-06
1.740774501e-06
1.791999167e-06
1.834879882e-06
1.871587646e-06
1.903567516e-06
1.931827543e-06
1.957097215e-06
1.979920128e-06
2.000711013e-06
2.019792301e-06
2.037418415e-06
2.053792433e-06
2.069077755e-06
2.083406437e-06
2.096885378e-06
2.109600958e-06
2.121622755e-06
2.1330066e-06
2.143797055e-06
2.15402973e-06
2.163733513e-06
2.172932767e-06
2.181649582e-06
2.189906306e-06
2.197725402e-06
2.205176307e-06
2.211711687e-06
2.224348533e-06
2.177765067e-06
2.529268419e-06
1.031115069e-06
7.546854706e-06
3.686862725e-05
0.0006769726247
0.0007915997325
9.750465757e-07
1.315950604e-06
1.486206247e-06
1.596877782e-06
1.677746978e-06
1.740764198e-06
1.791971054e-06
1.834837861e-06
1.87153609e-06
1.90351129e-06
1.931772026e-06
1.957048309e-06
1.97988424e-06
2.000695008e-06
2.019803386e-06
2.037464031e-06
2.053880125e-06
2.069214889e-06
2.083599908e-06
2.097141299e-06
2.109924325e-06
2.122016996e-06
2.133473157e-06
2.144335015e-06
2.154635413e-06
2.164400148e-06
2.173650296e-06
2.182404643e-06
2.190682491e-06
2.198503402e-06
2.205939569e-06
2.212384364e-06
2.225488769e-06
2.174206106e-06
2.558703815e-06
9.564240766e-07
8.870583515e-06
5.043108887e-05
0.0007143043938
0.0008379182195
9.750709513e-07
1.316090534e-06
1.48628843e-06
1.596935906e-06
1.677781961e-06
1.740778547e-06
1.791968152e-06
1.834821683e-06
1.871511178e-06
1.903482783e-06
1.931745688e-06
1.957030549e-06
1.979882111e-06
2.000716155e-06
2.019855928e-06
2.037556534e-06
2.05402134e-06
2.069413472e-06
2.083864143e-06
2.097478743e-06
2.110341425e-06
2.122518549e-06
2.13406176e-06
2.14501062e-06
2.155394816e-06
2.165236539e-06
2.174552937e-06
2.18335874e-06
2.19166933e-06
2.199500333e-06
2.206927173e-06
2.213259622e-06
2.22707188e-06
2.168982049e-06
2.599173826e-06
8.478973854e-07
1.485775172e-07
6.555345142e-05
0.0007514161532
0.000885776592
9.751080772e-07
1.316255775e-06
1.486395863e-06
1.597020874e-06
1.677844867e-06
1.740821719e-06
1.791994926e-06
1.834836097e-06
1.871517947e-06
1.903487335e-06
1.931754209e-06
1.957050014e-06
1.979920296e-06
2.00078157e-06
2.019957781e-06
2.037704643e-06
2.054225818e-06
2.069684523e-06
2.084211746e-06
2.097912229e-06
2.110868999e-06
2.123146757e-06
2.134794736e-06
2.14584947e-06
2.156337071e-06
2.166275508e-06
2.175677234e-06
2.184552e-06
2.1929102e-06
2.200762334e-06
2.208186847e-06
2.21439515e-06
2.229024495e-06
2.16324205e-06
2.644335058e-06
5.871067886e-07
1.529496136e-06
8.261663286e-05
0.0007880819151
0.0009350836615
9.751605302e-07
1.316450125e-06
1.486532487e-06
1.597136973e-06
1.677940327e-06
1.740898689e-06
1.792056695e-06
1.834886765e-06
1.871562407e-06
1.903531321e-06
1.931804359e-06
1.957113935e-06
1.980006589e-06
2.000899694e-06
2.020118218e-06
2.037918583e-06
2.054505028e-06
2.070041121e-06
2.084657775e-06
2.098459174e-06
2.111527257e-06
2.123925066e-06
2.135699303e-06
2.146883079e-06
2.157498386e-06
2.167558241e-06
2.177069409e-06
2.186035468e-06
2.194460464e-06
2.202348453e-06
2.209779289e-06
2.215867661e-06
2.23127135e-06
2.158235603e-06
2.684646728e-06
3.737575337e-07
2.908996246e-06
9.942377281e-05
0.000824169223
0.0009857352438
9.752328194e-07
1.316677958e-06
1.486703106e-06
1.597289169e-06
1.678073588e-06
1.741015044e-06
1.792159401e-06
1.834979997e-06
1.871651254e-06
1.903621848e-06
1.9319037e-06
1.957230401e-06
1.980149686e-06
2.001080085e-06
2.020347783e-06
2.038210215e-06
2.054872491e-06
2.070498804e-06
2.085220239e-06
2.099140598e-06
2.112340812e-06
2.124882196e-06
2.136808932e-06
2.148150406e-06
2.158923794e-06
2.169136354e-06
2.178787974e-06
2.18787451e-06
2.196391847e-06
2.204335598e-06
2.211786723e-06
2.217744177e-06
2.234060506e-06
2.152670431e-06
2.729967018e-06
1.507420349e-07
4.886422511e-06
0.0001208059433
0.0008591115919
0.001037961354
9.753296868e-07
1.316936613e-06
1.486910738e-06
1.597481381e-06
1.678249274e-06
1.741175962e-06
1.792308713e-06
1.83512194e-06
1.87179114e-06
1.903766156e-06
1.932060197e-06
1.957408215e-06
1.980359275e-06
2.001333608e-06
2.02065883e-06
2.038593718e-06
2.055344555e-06
2.071076493e-06
2.085921111e-06
2.099982156e-06
2.113339751e-06
2.126053448e-06
2.138164844e-06
2.149699371e-06
2.160668743e-06
2.171073537e-06
2.180905513e-06
2.190151051e-06
2.198795615e-06
2.206823477e-06
2.214315629e-06
2.220137845e-06
2.237399075e-06
2.148514e-06
2.76158788e-06
2.565793807e-08
7.149327678e-06
2.002878936e-06
0.0008933160307
0.001092176724
9.754546042e-07
1.317216665e-06
1.487156393e-06
1.597716528e-06
1.678471703e-06
1.741386801e-06
1.792510849e-06
1.835319595e-06
1.871989838e-06
1.90397282e-06
1.932283296e-06
1.957657877e-06
1.980647312e-06
2.001673771e-06
2.021066687e-06
2.039086587e-06
2.055941403e-06
2.071797604e-06
2.086787551e-06
2.101015429e-06
2.114560947e-06
2.127482108e-06
2.139817788e-06
2.151589278e-06
2.162802281e-06
2.173449469e-06
2.183513033e-06
2.19296793e-06
2.201786716e-06
2.209939095e-06
2.217501874e-06
2.223233032e-06
2.240803388e-06
2.153935748e-06
2.708696223e-06
3.313256872e-07
7.616695897e-06
1.483689492e-05
0.0009303314446
0.001148134377
9.756161857e-07
1.317534012e-06
1.48744804e-06
1.598001814e-06
1.678748482e-06
1.741655899e-06
1.79277496e-06
1.835582959e-06
1.872258209e-06
1.904253585e-06
1.932585655e-06
1.957993011e-06
1.981028692e-06
2.00211711e-06
2.021589949e-06
2.039709943e-06
2.056687274e-06
2.072690192e-06
2.087852393e-06
2.102279122e-06
2.11605001e-06
2.129221942e-06
2.141831183e-06
2.15389478e-06
2.165411896e-06
2.176365979e-06
2.186727755e-06
2.19645825e-06
2.205514017e-06
2.213846439e-06
2.221526096e-06
2.227188065e-06
2.244981601e-06
2.162433871e-06
2.635986378e-06
7.200446344e-07
8.420130313e-06
2.549683359e-05
0.0009672424428
0.001205794939
9.75815169e-07
1.317898383e-06
1.487794038e-06
1.598346296e-06
1.679089161e-06
1.741993503e-06
1.79311216e-06
1.835924132e-06
1.872609454e-06
1.904622858e-06
1.932982941e-06
1.958430532e-06
1.981521421e-06
2.002682908e-06
2.022249699e-06
2.040487665e-06
2.057609946e-06
2.073787023e-06
2.089154766e-06
2.10382008e-06
2.117862942e-06
2.131339774e-06
2.144284566e-06
2.156710035e-06
2.168608393e-06
2.179952822e-06
2.190700321e-06
2.20079496e-06
2.210173226e-06
2.218762973e-06
2.226626629e-06
2.232209865e-06
2.251387878e-06
2.154141375e-06
2.761652391e-06
2.730425954e-08
9.004666549e-06
3.79849156e-05
0.001003961198
0.001265203554
9.760545154e-07
1.318316366e-06
1.488201532e-06
1.598758211e-06
1.679502788e-06
1.742409503e-06
1.793533304e-06
1.836355068e-06
1.873056796e-06
1.905095383e-06
1.933491825e-06
1.958989633e-06
1.982147526e-06
2.003395982e-06
2.023073399e-06
2.041449961e-06
2.058743068e-06
2.075127037e-06
2.09074122e-06
2.105694395e-06
2.12006775e-06
2.133917932e-06
2.147277064e-06
2.1601537e-06
2.172532886e-06
2.184376511e-06
2.195625422e-06
2.206203174e-06
2.21602133e-06
2.224978367e-06
2.233110955e-06
2.23891468e-06
2.255471247e-06
2.197234364e-06
2.446559607e-06
1.400997543e-06
1.053298729e-05
5.03903743e-05
0.001040250594
0.001326479529
9.76334129e-07
1.318784863e-06
1.488673103e-06
1.599242814e-06
1.679996612e-06
1.742912781e-06
1.794048817e-06
1.83688778e-06
1.873613934e-06
1.9056867e-06
1.934129943e-06
1.959690521e-06
1.982930776e-06
2.004285093e-06
2.024096044e-06
2.042638157e-06
2.060133526e-06
2.076762533e-06
2.09267061e-06
2.107970651e-06
2.122747058e-06
2.137057218e-06
2.150931886e-06
2.164375675e-06
2.177366069e-06
2.189852632e-06
2.201757811e-06
2.212980276e-06
2.223400711e-06
2.232880038e-06
2.241439873e-06
2.247216709e-06
2.266940636e-06
2.180424199e-06
2.605965364e-06
9.861085424e-07
1.199592541e-05
6.571332515e-05
0.001076138465
0.001389721971
9.766613398e-07
1.319311393e-06
1.489216655e-06
1.599808992e-06
1.68058085e-06
1.743515019e-06
1.794671966e-06
1.837537305e-06
1.874297916e-06
1.906416126e-06
1.93491916e-06
1.960557751e-06
1.983898652e-06
2.005381295e-06
2.025353812e-06
2.044096486e-06
2.061837152e-06
2.078762066e-06
2.095023024e-06
2.110740982e-06
2.126007735e-06
2.140884711e-06
2.155403558e-06
2.16956538e-06
2.183339374e-06
2.196661425e-06
2.209432988e-06
2.221522767e-06
2.232773179e-06
2.242999481e-06
2.252182603e-06
2.258317605e-06
2.278877993e-06
2.190044222e-06
2.565185587e-06
1.729938871e-06
1.416224051e-05
8.229654304e-05
0.001111378468
0.001455028255
9.77041598e-07
1.319900435e-06
1.489839293e-06
1.600465442e-06
1.681265889e-06
1.744228377e-06
1.795416816e-06
1.838319808e-06
1.875127293e-06
1.907305022e-06
1.935884182e-06
1.961620081e-06
1.985084736e-06
2.006723584e-06
2.026891526e-06
2.045876404e-06
2.06391444e-06
2.081200362e-06
2.097893878e-06
2.114124133e-06
2.129991936e-06
2.145568739e-06
2.160893331e-06
2.175967381e-06
2.190752869e-06
2.205170323e-06
2.219096696e-06
2.232364668e-06
2.244768701e-06
2.256069576e-06
2.266163738e-06
2.273410012e-06
2.289927393e-06
2.236445123e-06
2.492880499e-06
1.3811593e-06
1.670556131e-05
0.0001007653846
0.001145585889
0.001522577424
9.774810778e-07
1.320556921e-06
1.490548644e-06
1.601221457e-06
1.682062876e-06
1.74506605e-06
1.796298838e-06
1.839253324e-06
1.87612304e-06
1.908377769e-06
1.937053373e-06
1.962910627e-06
1.986527924e-06
2.008358073e-06
2.028764357e-06
2.048044e-06
2.066443619e-06
2.084169401e-06
2.10139351e-06
2.118257604e-06
2.134874325e-06
2.151327179e-06
2.167667405e-06
2.183906015e-06
2.200004288e-06
2.215868898e-06
2.231349412e-06
2.246234536e-06
2.260257405e-06
2.273109179e-06
2.284627166e-06
2.293016486e-06
2.311614922e-06
2.245808007e-06
2.581054112e-06
1.587373209e-06
2.244426144e-05
0.0001179545838
0.001178131033
0.00159259258
9.779788349e-07
1.321288728e-06
1.491352028e-06
1.602086466e-06
1.682983352e-06
1.746041926e-06
1.797334588e-06
1.840357476e-06
1.877308347e-06
1.909661745e-06
1.938459095e-06
1.964467735e-06
1.98827379e-06
2.010339104e-06
2.0310374e-06
2.050677824e-06
2.069520446e-06
2.087786408e-06
2.10566439e-06
2.123314289e-06
2.140868282e-06
2.158429417e-06
2.176067822e-06
2.193811089e-06
2.211629295e-06
2.229423572e-06
2.247017693e-06
2.264147552e-06
2.28046557e-06
2.295568814e-06
2.309311197e-06
2.318810462e-06
2.347204801e-06
2.227663256e-06
2.891101029e-06
2.328861291e-06
1.804007343e-05
0.0001313920362
0.001208963093
0.001665248689
9.785344155e-07
1.322102165e-06
1.492256139e-06
1.603069531e-06
1.684038791e-06
1.747170194e-06
1.798541401e-06
1.841653294e-06
1.878708593e-06
1.911187488e-06
1.940138062e-06
1.966335584e-06
1.990375616e-06
2.012731143e-06
2.033788924e-06
2.05387323e-06
2.073261486e-06
2.092194621e-06
2.110883871e-06
2.129514762e-06
2.148248301e-06
2.167219599e-06
2.186532848e-06
2.206246353e-06
2.226351018e-06
2.246755709e-06
2.267268047e-06
2.287564361e-06
2.307187422e-06
2.325624692e-06
2.342560618e-06
2.35624861e-06
2.379122624e-06
2.334238529e-06
2.551050181e-06
1.805753145e-06
5.55134102e-07
0.0001525988094
0.001237467133
0.001740497946
9.791511717e-07
1.323001555e-06
1.49326737e-06
1.604179287e-06
1.685240426e-06
1.748465148e-06
1.799937204e-06
1.843163044e-06
1.880351277e-06
1.912988821e-06
1.942131735e-06
1.968564919e-06
1.992895546e-06
2.01561044e-06
2.037112733e-06
2.057745933e-06
2.0778099e-06
2.097571671e-06
2.11727312e-06
2.137136025e-06
2.157364191e-06
2.17814324e-06
2.199636133e-06
2.221959483e-06
2.245150272e-06
2.269152556e-06
2.293785482e-06
2.318671001e-06
2.343210382e-06
2.366758611e-06
2.388658105e-06
2.410137589e-06
2.422044475e-06
2.463782049e-06
2.530557466e-06
1.34511026e-06
4.363201545e-06
0.0001733067296
0.001261993347
0.001818439129
9.798317535e-07
1.323990331e-06
1.494391188e-06
1.605423499e-06
1.686598817e-06
1.749940763e-06
1.801540148e-06
1.844909974e-06
1.882265875e-06
1.915102868e-06
1.944486679e-06
1.971213915e-06
1.995906042e-06
2.019067245e-06
2.041121409e-06
2.062436613e-06
2.083341709e-06
2.104138112e-06
2.12510925e-06
2.146527978e-06
2.168661347e-06
2.191774654e-06
2.21613093e-06
2.241953458e-06
2.269377785e-06
2.298453529e-06
2.32909705e-06
2.360915295e-06
2.393099922e-06
2.424743494e-06
2.455062004e-06
2.48703753e-06
2.502401404e-06
2.579039705e-06
2.842124237e-06
5.494755486e-07
2.939690064e-05
0.0002164495948
0.001285226927
0.001899547797
9.805777577e-07
1.325070445e-06
1.495631477e-06
1.606808406e-06
1.688123225e-06
1.751610126e-06
1.803368111e-06
1.846917931e-06
1.884483637e-06
1.917570066e-06
1.9472548e-06
1.97434892e-06
1.999491579e-06
2.023208615e-06
2.045950418e-06
2.068116817e-06
2.090074108e-06
2.112168624e-06
2.134739843e-06
2.15813232e-06
2.182706166e-06
2.208855483e-06
2.23701574e-06
2.267612135e-06
2.3009975e-06
2.337493677e-06
2.377256239e-06
2.419652906e-06
2.462981082e-06
2.505378752e-06
2.547273896e-06
2.587234844e-06
2.648413262e-06
2.677528835e-06