/*--------------------------------*- C++ -*----------------------------------*\
| =========                 |                                                 |
| \\      /  F ield         | OpenFOAM: The Open Source CFD Toolbox           |
|  \\    /   O peration     | Version:  v1912                                 |
|   \\  /    A nd           | Website:  www.openfoam.com                      |
|    \\/     M anipulation  |                                                 |
\*---------------------------------------------------------------------------*/
FoamFile
{
    version     2.0;
    format      ascii;
    class       volScalarField;
    location    "0.6";
    object      nut.gas;
}
// * * * * * * * * * * * * * * * * * * * * * * * * * * * * * * * * * * * * * //

dimensions      [0 2 -1 0 0 0 0];


internalField   nonuniform List<scalar> 
4800
(
1.415491016e-08
2.792113569e-08
3.796124774e-08
4.633255248e-08
5.373718905e-08
6.051666022e-08
6.687629805e-08
7.295630116e-08
7.886163563e-08
8.467679368e-08
9.047391885e-08
9.631767803e-08
1.022684031e-07
1.083842503e-07
1.147227831e-07
1.213422063e-07
1.283023958e-07
1.356658157e-07
1.434983923e-07
1.518704028e-07
1.608574298e-07
1.705414411e-07
1.810120584e-07
1.923681049e-07
2.047195443e-07
2.181899715e-07
2.329198834e-07
2.490710677e-07
2.668326194e-07
2.864292832e-07
3.081342685e-07
3.322808116e-07
3.593273732e-07
3.897437562e-07
4.241631372e-07
4.677454499e-07
4.921937598e-07
6.40075444e-07
1.830142313e-07
9.36518138e-07
2.293950391e-08
4.616756174e-08
6.337755132e-08
7.775389735e-08
9.038756218e-08
1.018011599e-07
1.12297129e-07
1.220698444e-07
1.312532502e-07
1.399444159e-07
1.482164278e-07
1.561259957e-07
1.637182098e-07
1.710296585e-07
1.78090552e-07
1.849262181e-07
1.915581855e-07
1.98004992e-07
2.042828008e-07
2.104058848e-07
2.163870166e-07
2.222377936e-07
2.279689182e-07
2.335904513e-07
2.391120512e-07
2.445432127e-07
2.498935207e-07
2.551729284e-07
2.603920954e-07
2.655625713e-07
2.706994367e-07
2.7580045e-07
2.810152016e-07
2.855531965e-07
2.93321212e-07
2.893214142e-07
3.214127596e-07
2.505340437e-07
6.479048815e-07
1.514704773e-06
2.2361738e-08
4.497452878e-08
6.172084842e-08
7.570869115e-08
8.800164681e-08
9.910846808e-08
1.093232405e-07
1.188347942e-07
1.277731455e-07
1.362324475e-07
1.44283541e-07
1.519813539e-07
1.593695237e-07
1.664834223e-07
1.733522125e-07
1.800002911e-07
1.864483294e-07
1.927140428e-07
1.988127719e-07
2.047579309e-07
2.105613616e-07
2.162336191e-07
2.217842085e-07
2.272217897e-07
2.325543613e-07
2.377894384e-07
2.429342361e-07
2.479958781e-07
2.529816609e-07
2.578993232e-07
2.62758427e-07
2.675625074e-07
2.723827128e-07
2.768345181e-07
2.833480388e-07
2.79631249e-07
3.188890005e-07
1.541861923e-07
6.39879768e-07
1.767460868e-06
2.240265835e-08
4.506148074e-08
6.184243116e-08
7.585920808e-08
8.817747962e-08
9.930709328e-08
1.095428072e-07
1.190739033e-07
1.280307203e-07
1.365076517e-07
1.445757234e-07
1.522900097e-07
1.596942659e-07
1.668239612e-07
1.737083397e-07
1.80371868e-07
1.868352792e-07
1.931163445e-07
1.992304578e-07
2.051910858e-07
2.110101248e-07
2.166981881e-07
2.22264846e-07
2.277188317e-07
2.330682278e-07
2.383206446e-07
2.434834022e-07
2.485637327e-07
2.535690245e-07
2.585071046e-07
2.633868546e-07
2.682175674e-07
2.730147949e-07
2.77777153e-07
2.827718279e-07
2.853525553e-07
3.053198775e-07
1.935873593e-07
4.81194156e-07
1.953704893e-06
2.239894486e-08
4.50535354e-08
6.18310127e-08
7.584485765e-08
8.81605182e-08
9.928774765e-08
1.09521248e-07
1.190502628e-07
1.280051036e-07
1.364801431e-07
1.445463909e-07
1.522589073e-07
1.596614356e-07
1.667894334e-07
1.736721334e-07
1.803339899e-07
1.867957221e-07
1.930750857e-07
1.991874551e-07
2.051462737e-07
2.109634084e-07
2.166494351e-07
2.22213875e-07
2.276653969e-07
2.330119961e-07
2.382611614e-07
2.434200401e-07
2.484956118e-07
2.534948793e-07
2.584251246e-07
2.632938004e-07
2.681125492e-07
2.728683446e-07
2.776942144e-07
2.822418507e-07
2.859912264e-07
3.026340859e-07
1.998935726e-07
5.93098428e-07
2.112021934e-06
2.239853586e-08
4.505290281e-08
6.182992911e-08
7.584338851e-08
8.815867791e-08
9.92855529e-08
1.095187197e-07
1.190474251e-07
1.280019828e-07
1.364767672e-07
1.445427891e-07
1.522551087e-07
1.596574687e-07
1.667853246e-07
1.736679055e-07
1.803296605e-07
1.867913014e-07
1.930705733e-07
1.991828374e-07
2.05141519e-07
2.109584617e-07
2.166442104e-07
2.222082459e-07
2.276591823e-07
2.330049403e-07
2.382529049e-07
2.434100757e-07
2.484832175e-07
2.534790127e-07
2.584042751e-07
2.632655477e-07
2.680749405e-07
2.728056491e-07
2.776588577e-07
2.819787069e-07
2.857120331e-07
3.030861959e-07
3.500273582e-07
8.62229336e-07
2.266045327e-06
2.239789347e-08
4.505176754e-08
6.182806927e-08
7.584091136e-08
8.815561685e-08
9.92819381e-08
1.095145826e-07
1.190427979e-07
1.279968983e-07
1.364712589e-07
1.4453689e-07
1.522488514e-07
1.596508834e-07
1.667784385e-07
1.73660741e-07
1.803222327e-07
1.867836159e-07
1.93062623e-07
1.991745984e-07
2.051329457e-07
2.109494803e-07
2.166347108e-07
2.221980704e-07
2.276481108e-07
2.329926692e-07
2.382390176e-07
2.433940002e-07
2.484641646e-07
2.534558889e-07
2.583755185e-07
2.632292829e-07
2.680264729e-07
2.727445256e-07
2.77637916e-07
2.812005362e-07
2.890889127e-07
2.95847248e-07
2.920463049e-07
7.618005393e-07
2.394738078e-06
2.239728293e-08
4.505074007e-08
6.182631365e-08
7.583853676e-08
8.815265054e-08
9.927840674e-08
1.095105163e-07
1.19038229e-07
1.279918611e-07
1.364657887e-07
1.44531023e-07
1.522426229e-07
1.596443273e-07
1.667715853e-07
1.736536158e-07
1.803148534e-07
1.867759894e-07
1.930547425e-07
1.991664383e-07
2.05124457e-07
2.10940583e-07
2.166252859e-07
2.221879485e-07
2.276370572e-07
2.329803643e-07
2.382250301e-07
2.433777502e-07
2.484448727e-07
2.534325093e-07
2.583466347e-07
2.631931927e-07
2.679795433e-07
2.72688131e-07
2.775987301e-07
2.804594487e-07
2.945648579e-07
2.647063184e-07
2.056495921e-07
1.307425101e-06
2.528613818e-06
2.239668317e-08
4.504977251e-08
6.18245923e-08
7.583617623e-08
8.814967398e-08
9.927483872e-08
1.095063865e-07
1.190335707e-07
1.279867104e-07
1.364601835e-07
1.445250023e-07
1.522362257e-07
1.596375911e-07
1.66764544e-07
1.736462982e-07
1.803072798e-07
1.86768169e-07
1.930466691e-07
1.99158086e-07
2.05115774e-07
2.109314853e-07
2.166156479e-07
2.221775924e-07
2.276257391e-07
2.329677563e-07
2.382106968e-07
2.433611183e-07
2.484251917e-07
2.534087993e-07
2.583176916e-07
2.631567985e-07
2.679403248e-07
2.72584991e-07
2.778614464e-07
2.783911201e-07
3.039904149e-07
2.059137548e-07
4.165013289e-07
1.685730732e-06
2.665297951e-06
2.239609541e-08
4.504887037e-08
6.182291311e-08
7.583384015e-08
8.814669992e-08
9.927124911e-08
1.095022108e-07
1.190288431e-07
1.279814688e-07
1.364544689e-07
1.445188571e-07
1.522296929e-07
1.596307123e-07
1.667573578e-07
1.736388375e-07
1.80299569e-07
1.867602206e-07
1.930384794e-07
1.991496305e-07
2.051070011e-07
2.109223095e-07
2.166059413e-07
2.22167174e-07
2.276143623e-07
2.329550931e-07
2.381963187e-07
2.433444706e-07
2.484055658e-07
2.533852994e-07
2.582892393e-07
2.631215428e-07
2.679030194e-07
2.724708123e-07
2.783468051e-07
2.743418027e-07
3.219169227e-07
3.105202156e-07
6.785295926e-07
2.061853348e-06
2.808008522e-06
2.239551952e-08
4.504803585e-08
6.182127871e-08
7.583153211e-08
8.814373285e-08
9.926764334e-08
1.094979955e-07
1.190240537e-07
1.279761456e-07
1.364486558e-07
1.445126005e-07
1.522230402e-07
1.596237102e-07
1.6675005e-07
1.736312622e-07
1.802917557e-07
1.867521865e-07
1.930302251e-07
1.991411345e-07
2.050982144e-07
2.10913148e-07
2.165962778e-07
2.221568285e-07
2.276030902e-07
2.329425728e-07
2.381821338e-07
2.433280918e-07
2.483863316e-07
2.533623955e-07
2.582617069e-07
2.630877654e-07
2.678660305e-07
2.723928347e-07
2.784156795e-07
2.744025711e-07
3.135540144e-07
2.769029532e-07
4.289488373e-07
2.309337457e-06
2.951979117e-06
2.239495583e-08
4.504727239e-08
6.181969337e-08
7.582925765e-08
8.814077951e-08
9.926402938e-08
1.094937501e-07
1.190192135e-07
1.279707533e-07
1.364427588e-07
1.445062496e-07
1.522162879e-07
1.596166087e-07
1.667426493e-07
1.736236066e-07
1.80283881e-07
1.867441162e-07
1.930219653e-07
1.991326691e-07
2.050894987e-07
2.109041019e-07
2.16586778e-07
2.22146699e-07
2.275920929e-07
2.329303953e-07
2.381683755e-07
2.433122519e-07
2.483677961e-07
2.533404235e-07
2.582354075e-07
2.63056012e-07
2.678269882e-07
2.723717912e-07
2.779760257e-07
2.779044267e-07
3.008046241e-07
1.462826903e-07
7.539841869e-07
2.557289863e-06
3.095598303e-06
2.239440503e-08
4.50465844e-08
6.181816244e-08
7.582702364e-08
8.813784814e-08
9.926041687e-08
1.094894855e-07
1.19014335e-07
1.279653064e-07
1.364367947e-07
1.444998238e-07
1.522094586e-07
1.596094346e-07
1.66735187e-07
1.73615908e-07
1.802759897e-07
1.867360628e-07
1.930137636e-07
1.991243098e-07
2.050809438e-07
2.108952776e-07
2.165775669e-07
2.221369323e-07
2.275815413e-07
2.329187574e-07
2.381552686e-07
2.432972047e-07
2.48350238e-07
2.533196684e-07
2.582106062e-07
2.630267309e-07
2.677847177e-07
2.724001184e-07
2.773799895e-07
2.804542501e-07
2.900482675e-07
2.800743143e-07
9.506581215e-07
2.781295542e-06
3.23930857e-06
2.239386823e-08
4.504597736e-08
6.181669257e-08
7.582483846e-08
8.813494872e-08
9.925681734e-08
1.09485215e-07
1.190094333e-07
1.279598218e-07
1.364307826e-07
1.444933452e-07
1.522025777e-07
1.596022174e-07
1.66727698e-07
1.736082076e-07
1.802681301e-07
1.867280841e-07
1.930056882e-07
1.991161374e-07
2.050726449e-07
2.108867866e-07
2.165687747e-07
2.221276793e-07
2.275716084e-07
2.329078548e-07
2.381430332e-07
2.432831921e-07
2.483339115e-07
2.53300385e-07
2.581876069e-07
2.629994287e-07
2.677490418e-07
2.723853815e-07
2.771422787e-07
2.816152596e-07
2.839403323e-07
3.006510298e-07
1.137095347e-06
2.99028068e-06
3.383732326e-06
2.239334698e-08
4.504545788e-08
6.181529179e-08
7.582271218e-08
8.813209314e-08
9.925324442e-08
1.094809539e-07
1.190045256e-07
1.27954319e-07
1.364247447e-07
1.444868386e-07
1.521956739e-07
1.5959499e-07
1.667202207e-07
1.736005502e-07
1.802603552e-07
1.867202421e-07
1.929978124e-07
1.991082382e-07
2.05064703e-07
2.108787465e-07
2.165605377e-07
2.221190963e-07
2.275624698e-07
2.328978858e-07
2.38131888e-07
2.432704469e-07
2.483190571e-07
2.532828277e-07
2.581666335e-07
2.629747923e-07
2.677136241e-07
2.723982622e-07
2.767327888e-07
2.836102914e-07
2.762692887e-07
3.468923639e-07
3.368004346e-07
3.191791563e-06
3.528561135e-06
2.239284334e-08
4.504503385e-08
6.181396964e-08
7.582065671e-08
8.81292954e-08
9.924971413e-08
1.094767203e-07
1.18999632e-07
1.279488204e-07
1.364187058e-07
1.444803323e-07
1.52188779e-07
1.595877891e-07
1.667127971e-07
1.735929848e-07
1.802527221e-07
1.86712604e-07
1.929902151e-07
1.991007044e-07
2.050572258e-07
2.108712824e-07
2.165529997e-07
2.221113461e-07
2.275543085e-07
2.328890539e-07
2.381220554e-07
2.432592063e-07
2.483059253e-07
2.532672503e-07
2.581479494e-07
2.629526289e-07
2.676843356e-07
2.723755103e-07
2.766510363e-07
2.844291847e-07
2.722170045e-07
1.90240063e-07
5.69552243e-07
3.388113721e-06
3.673594104e-06
2.23923599e-08
4.504471453e-08
6.181273742e-08
7.581868605e-08
8.812657189e-08
9.924624511e-08
1.09472535e-07
1.189947757e-07
1.279433516e-07
1.364126945e-07
1.44473858e-07
1.521819287e-07
1.595806551e-07
1.667054738e-07
1.735855652e-07
1.802452934e-07
1.867052429e-07
1.929829815e-07
1.990936355e-07
2.05050329e-07
2.108645282e-07
2.165463143e-07
2.22104601e-07
2.275473187e-07
2.328815726e-07
2.381137668e-07
2.432497194e-07
2.482947767e-07
2.532539124e-07
2.581318115e-07
2.629332428e-07
2.676580501e-07
2.723701495e-07
2.764841403e-07
2.846666606e-07
2.710480423e-07
2.044512481e-07
7.352001518e-07
3.57613959e-06
3.81904623e-06
2.239189991e-08
4.504451071e-08
6.181160829e-08
7.581681653e-08
8.81239417e-08
9.924285904e-08
1.094684223e-07
1.189899835e-07
1.279379422e-07
1.364067433e-07
1.444674517e-07
1.521751634e-07
1.595736335e-07
1.666983025e-07
1.735783507e-07
1.802381378e-07
1.866982384e-07
1.929762045e-07
1.990871396e-07
2.050441381e-07
2.108586287e-07
2.165406459e-07
2.22099049e-07
2.275417119e-07
2.328756733e-07
2.381072698e-07
2.432422508e-07
2.482858886e-07
2.53243095e-07
2.581184496e-07
2.629174322e-07
2.676295345e-07
2.724303804e-07
2.757659997e-07
2.888345242e-07
2.48547227e-07
2.532616015e-07
9.128303443e-07
3.758429351e-06
3.965069096e-06
2.239146728e-08
4.504443483e-08
6.181059759e-08
7.581506712e-08
8.812142699e-08
9.923958105e-08
1.0946441e-07
1.189852861e-07
1.279326258e-07
1.364008892e-07
1.444611543e-07
1.521685284e-07
1.595667752e-07
1.666913408e-07
1.735714072e-07
1.802313311e-07
1.866916784e-07
1.929699862e-07
1.990813356e-07
2.050387907e-07
2.108537415e-07
2.165361746e-07
2.220948963e-07
2.275377186e-07
2.328716117e-07
2.381028412e-07
2.4323709e-07
2.482795632e-07
2.532351048e-07
2.581082057e-07
2.629049358e-07
2.676056825e-07
2.724926764e-07
2.750124978e-07
2.930565707e-07
2.33248152e-07
2.053162508e-07
1.069921328e-06
3.935354055e-06
4.111771851e-06
2.23910667e-08
4.504450121e-08
6.1809723e-08
7.581345973e-08
8.811905339e-08
9.923644017e-08
1.094605306e-07
1.189807191e-07
1.279274415e-07
1.363951748e-07
1.444550126e-07
1.521620753e-07
1.595601377e-07
1.666846535e-07
1.735648085e-07
1.802249579e-07
1.866856608e-07
1.9296444e-07
1.990763547e-07
2.050344388e-07
2.108500421e-07
2.165331025e-07
2.220923709e-07
2.275355939e-07
2.328696707e-07
2.381007921e-07
2.432345678e-07
2.482761401e-07
2.532302899e-07
2.58101437e-07
2.628958873e-07
2.675902081e-07
2.72510785e-07
2.746903864e-07
2.951634876e-07
2.129387581e-07
2.828632454e-07
1.231528786e-06
4.106487142e-06
4.25911203e-06
2.239070373e-08
4.504472615e-08
6.180900489e-08
7.581201966e-08
8.811685046e-08
9.923346995e-08
1.094568213e-07
1.189763236e-07
1.279224339e-07
1.363896489e-07
1.444490798e-07
1.521558629e-07
1.595537863e-07
1.666783139e-07
1.735586374e-07
1.802191133e-07
1.86680295e-07
1.929596927e-07
1.990723445e-07
2.050312532e-07
2.108477277e-07
2.165316566e-07
2.220917306e-07
2.275356273e-07
2.328701709e-07
2.381014735e-07
2.432350648e-07
2.482760157e-07
2.532290526e-07
2.580985297e-07
2.628909584e-07
2.675794305e-07
2.725310589e-07
2.744266142e-07
2.963299412e-07
2.06089261e-07
3.070596408e-07
1.403443072e-06
4.271603428e-06
4.406987078e-06
2.23903849e-08
4.504512822e-08
6.180846662e-08
7.581077595e-08
8.81148523e-08
9.923070909e-08
1.094533252e-07
1.189721467e-07
1.279176548e-07
1.363843679e-07
1.444434175e-07
1.521499586e-07
1.595477956e-07
1.666724053e-07
1.735529886e-07
1.802139051e-07
1.866757051e-07
1.929558882e-07
1.990694716e-07
2.050294273e-07
2.10847023e-07
2.165320948e-07
2.220932697e-07
2.275381516e-07
2.328734831e-07
2.381052912e-07
2.432390198e-07
2.482796579e-07
2.532318693e-07
2.580999612e-07
2.628905634e-07
2.675743662e-07
2.725491935e-07
2.742118835e-07
2.974177197e-07
1.952159419e-07
3.749402718e-07
1.575494957e-06
4.430468937e-06
4.555655323e-06
2.239011779e-08
4.50457284e-08
6.180813489e-08
7.580976195e-08
8.811309807e-08
9.922820222e-08
1.09450092e-07
1.189682434e-07
1.279131639e-07
1.363793966e-07
1.444380965e-07
1.521444402e-07
1.595422515e-07
1.666670238e-07
1.7354797e-07
1.802094564e-07
1.866720331e-07
1.929531903e-07
1.990679265e-07
2.05029183e-07
2.108481851e-07
2.165347141e-07
2.220973286e-07
2.275435527e-07
2.328800401e-07
2.381127229e-07
2.432469499e-07
2.482876192e-07
2.532393165e-07
2.581063099e-07
2.628951482e-07
2.675771666e-07
2.725445592e-07
2.742926797e-07
2.960077422e-07
2.089444025e-07
4.362577446e-07
1.773299766e-06
4.58288451e-06
4.705449193e-06
2.238991121e-08
4.504655034e-08
6.180804011e-08
7.580901578e-08
8.811163279e-08
9.922600071e-08
1.094471792e-07
1.189646768e-07
1.279090303e-07
1.363748106e-07
1.444331991e-07
1.521393977e-07
1.595372533e-07
1.666622799e-07
1.735437064e-07
1.802059096e-07
1.866694421e-07
1.92951788e-07
1.990679288e-07
2.050307763e-07
2.108515123e-07
2.165398598e-07
2.221043045e-07
2.275522835e-07
2.328903519e-07
2.381243355e-07
2.43259474e-07
2.483005614e-07
2.532520915e-07
2.581182789e-07
2.629054923e-07
2.675868292e-07
2.725450379e-07
2.742423098e-07
2.968130532e-07
2.043908952e-07
4.602916365e-07
5.715339576e-07
4.735773786e-06
4.855713857e-06
2.238977529e-08
4.504762062e-08
6.180821688e-08
7.580858103e-08
8.811050808e-08
9.922416372e-08
1.094446531e-07
1.189615203e-07
1.279053344e-07
1.363706974e-07
1.444288208e-07
1.521349356e-07
1.595329166e-07
1.666583024e-07
1.735403428e-07
1.802034294e-07
1.866681217e-07
1.929519008e-07
1.990697342e-07
2.05034506e-07
2.10857353e-07
2.165479369e-07
2.221146651e-07
2.275648796e-07
2.329050256e-07
2.381408076e-07
2.432773391e-07
2.483192905e-07
2.532710455e-07
2.581367432e-07
2.629225467e-07
2.676035567e-07
2.725471567e-07
2.742718213e-07
2.969635683e-07
2.049806066e-07
4.737811361e-07
8.048372613e-07
4.888434561e-06
5.00603405e-06
2.238972166e-08
4.504896899e-08
6.180870444e-08
7.580850737e-08
8.810978305e-08
9.922275927e-08
1.094425902e-07
1.189588586e-07
1.279021693e-07
1.363671588e-07
1.444250728e-07
1.521311762e-07
1.595293762e-07
1.666552417e-07
1.735380488e-07
1.802022087e-07
1.866682932e-07
1.929537855e-07
1.990736427e-07
2.050407227e-07
2.108661172e-07
2.165594234e-07
2.221289648e-07
2.275819791e-07
2.329247879e-07
2.381629571e-07
2.433014521e-07
2.483447945e-07
2.532972317e-07
2.58162788e-07
2.629476043e-07
2.676262026e-07
2.725732744e-07
2.74214481e-07
2.975846276e-07
2.008776636e-07
4.987776562e-07
1.027652165e-06
5.037423942e-06
5.156462554e-06
2.23897636e-08
4.505062863e-08
6.18095472e-08
7.580885135e-08
8.810952534e-08
9.922186549e-08
1.094410787e-07
1.1895679e-07
1.278996432e-07
1.363643134e-07
1.444220853e-07
1.521282624e-07
1.595267902e-07
1.666532742e-07
1.735370228e-07
1.802024734e-07
1.866702168e-07
1.92957745e-07
1.990800082e-07
2.050498408e-07
2.108782906e-07
2.165748875e-07
2.22147865e-07
2.276043464e-07
2.329505144e-07
2.381917752e-07
2.433329193e-07
2.483782882e-07
2.533319594e-07
2.581977819e-07
2.629822057e-07
2.676543576e-07
2.726452177e-07
2.738941158e-07
2.995448059e-07
1.940092909e-07
5.322702757e-07
1.226382544e-06
5.18222768e-06
5.307087092e-06
2.238991619e-08
4.505263622e-08
6.181079516e-08
7.580967703e-08
8.810981199e-08
9.922157187e-08
1.094402203e-07
1.189554278e-07
1.278978815e-07
1.363622995e-07
1.444200101e-07
1.521263616e-07
1.595253444e-07
1.666526077e-07
1.73537499e-07
1.802044907e-07
1.866742019e-07
1.929641394e-07
1.990892516e-07
2.050623534e-07
2.108944521e-07
2.165950086e-07
2.221721591e-07
2.276329019e-07
2.329832633e-07
2.382284652e-07
2.433730918e-07
2.484212659e-07
2.533768506e-07
2.582434791e-07
2.630277139e-07
2.676950571e-07
2.727150899e-07
2.736702217e-07
3.012828015e-07
1.868504774e-07
5.770848279e-07
1.422102505e-06
5.323038562e-06
5.458107291e-06
2.239019606e-08
4.505503146e-08
6.181250412e-08
7.58110567e-08
8.811073059e-08
9.92219808e-08
1.094401316e-07
1.189549034e-07
1.278970303e-07
1.363612784e-07
1.444190256e-07
1.521256713e-07
1.595252586e-07
1.666534884e-07
1.735397561e-07
1.802085814e-07
1.866806193e-07
1.929733985e-07
1.991018751e-07
2.050788507e-07
2.109152964e-07
2.166206039e-07
2.222028045e-07
2.276687586e-07
2.330243173e-07
2.382744902e-07
2.434236187e-07
2.484755619e-07
2.534339136e-07
2.583020239e-07
2.630865863e-07
2.677480043e-07
2.728120712e-07
2.733412445e-07
3.036560897e-07
1.759302864e-07
8.321156483e-08
1.613267146e-06
5.459427554e-06
5.609655176e-06
2.239062231e-08
4.505785981e-08
6.181473807e-08
7.58130735e-08
8.811238237e-08
9.922321116e-08
1.094409492e-07
1.189553706e-07
1.278972616e-07
1.363614415e-07
1.444193441e-07
1.521264278e-07
1.59526797e-07
1.666562128e-07
1.735441315e-07
1.802151309e-07
1.86689911e-07
1.929860359e-07
1.991184802e-07
2.051000414e-07
2.109416586e-07
2.166526584e-07
2.222409607e-07
2.277132716e-07
2.330752463e-07
2.383316502e-07
2.434865386e-07
2.485434517e-07
2.535056475e-07
2.583761159e-07
2.631616581e-07
2.678166805e-07
2.729316408e-07
2.729793195e-07
3.062827755e-07
1.463954276e-07
2.408541031e-07
1.80510966e-06
5.590944399e-06
5.761407742e-06
2.239122452e-08
4.506118616e-08
6.181757891e-08
7.581582916e-08
8.811488887e-08
9.922540471e-08
1.094428354e-07
1.189570131e-07
1.278987808e-07
1.36363017e-07
1.444212187e-07
1.521289122e-07
1.595302733e-07
1.666611323e-07
1.735510234e-07
1.802245911e-07
1.86702598e-07
1.930026605e-07
1.991397851e-07
2.051267754e-07
2.109745463e-07
2.166923653e-07
2.222880403e-07
2.277681072e-07
2.331380003e-07
2.384022023e-07
2.435644273e-07
2.486278268e-07
2.535952388e-07
2.584692067e-07
2.63256531e-07
2.67905711e-07
2.730691636e-07
2.72663255e-07
3.086085152e-07
1.168056739e-07
3.313319397e-07
1.976230696e-06
5.717485123e-06
5.913002895e-06
2.239205444e-08
4.506508528e-08
6.18211264e-08
7.581944142e-08
8.811838783e-08
9.922872057e-08
1.094459715e-07
1.189600352e-07
1.279018165e-07
1.363662595e-07
1.44424932e-07
1.521334387e-07
1.595360379e-07
1.666686448e-07
1.735608842e-07
1.80237486e-07
1.867192939e-07
1.930239956e-07
1.991666484e-07
2.051600777e-07
2.110151858e-07
2.167411852e-07
2.223457791e-07
2.278353242e-07
2.332150019e-07
2.384889721e-07
2.436605425e-07
2.487323862e-07
2.537068111e-07
2.585857868e-07
2.633760791e-07
2.680191255e-07
2.732397826e-07
2.723114868e-07
3.112024681e-07
7.417988375e-08
4.289944978e-07
2.175167176e-06
5.837481938e-06
6.065231763e-06
2.239316648e-08
4.506951147e-08
6.18254432e-08
7.582400321e-08
8.812300049e-08
9.923330621e-08
1.094505306e-07
1.189646361e-07
1.279065961e-07
1.363714281e-07
1.444307816e-07
1.521403492e-07
1.595444808e-07
1.666792024e-07
1.735742441e-07
1.802544416e-07
1.867407401e-07
1.930509216e-07
1.992001169e-07
2.052011985e-07
2.110650751e-07
2.168009117e-07
2.224163126e-07
2.279174519e-07
2.333092308e-07
2.385954416e-07
2.437789192e-07
2.488617588e-07
2.538456036e-07
2.587316694e-07
2.635266052e-07
2.681637264e-07
2.734438705e-07
2.720484668e-07
3.129995885e-07
3.060411589e-08
5.180386326e-07
8.210341911e-07
5.954123688e-06
6.21900421e-06
2.239460046e-08
4.507430333e-08
6.183055012e-08
7.58295836e-08
8.812884003e-08
9.923931411e-08
1.094567023e-07
1.189710426e-07
1.279133848e-07
1.363788299e-07
1.444391202e-07
1.521500514e-07
1.59556083e-07
1.666933669e-07
1.735917607e-07
1.802762303e-07
1.867678517e-07
1.93084527e-07
1.99241484e-07
2.052516758e-07
2.111260484e-07
2.168737421e-07
2.225022673e-07
2.280176166e-07
2.334243922e-07
2.387259604e-07
2.439246083e-07
2.490217451e-07
2.540182026e-07
2.589142452e-07
2.637161352e-07
2.683505905e-07
2.736518206e-07
2.723915059e-07
3.099877156e-07
1.099756444e-07
5.347180049e-07
9.146290081e-07
6.076069098e-06
6.37396293e-06
2.239645519e-08
4.507973271e-08
6.183661264e-08
7.583635332e-08
8.813610594e-08
9.924698158e-08
1.094647658e-07
1.189795783e-07
1.279225534e-07
1.363888849e-07
1.444504205e-07
1.521630742e-07
1.595714437e-07
1.667118258e-07
1.73614231e-07
1.803037837e-07
1.868017273e-07
1.931261156e-07
1.992923118e-07
2.053133926e-07
2.112003723e-07
2.169624026e-07
2.22606921e-07
2.281397483e-07
2.335651735e-07
2.388860775e-07
2.441041038e-07
2.492198374e-07
2.542331194e-07
2.591430344e-07
2.639553168e-07
2.685891763e-07
2.73906828e-07
2.729283227e-07
3.057988962e-07
1.621245079e-07
5.622441304e-07
1.096515639e-06
6.195572232e-06
6.529922289e-06
2.239873903e-08
4.50859658e-08
6.184380419e-08
7.58445269e-08
8.81450485e-08
9.925660018e-08
1.094750599e-07
1.189906349e-07
1.279345523e-07
1.364021085e-07
1.444652672e-07
1.521800739e-07
1.595912871e-07
1.667353805e-07
1.736425584e-07
1.803381545e-07
1.868436241e-07
1.931772083e-07
1.9935446e-07
2.053886256e-07
2.112908261e-07
2.170702767e-07
2.227343782e-07
2.28288795e-07
2.337374999e-07
2.390828492e-07
2.443257316e-07
2.494657472e-07
2.545015149e-07
2.594306286e-07
2.642581584e-07
2.688918094e-07
2.742973597e-07
2.724045076e-07
3.130032443e-07
3.157069651e-08
5.814790148e-07
1.287632011e-06
6.312288771e-06
6.686931649e-06
2.240148582e-08
4.509311492e-08
6.185227284e-08
7.585429934e-08
8.815590466e-08
9.926845103e-08
1.094879152e-07
1.190045991e-07
1.279498323e-07
1.364190277e-07
1.444842822e-07
1.522017949e-07
1.596164983e-07
1.667650617e-07
1.736779187e-07
1.803806733e-07
1.868950642e-07
1.932396107e-07
1.994301381e-07
2.054800966e-07
2.1140078e-07
2.172015257e-07
2.228897447e-07
2.284709791e-07
2.339488996e-07
2.393253067e-07
2.446002223e-07
2.497720766e-07
2.548379972e-07
2.597937444e-07
2.646426616e-07
2.692953373e-07
2.745459952e-07
2.751157031e-07
2.94606438e-07
2.261453428e-07
6.28915235e-07
1.456991798e-06
6.425688959e-06
6.845225585e-06
2.240469431e-08
4.51011267e-08
6.186207173e-08
7.586579465e-08
8.816886393e-08
9.928278637e-08
1.09503649e-07
1.19021859e-07
1.279688602e-07
1.364401974e-07
1.445081226e-07
1.522290199e-07
1.596480316e-07
1.66802063e-07
1.737218094e-07
1.804331597e-07
1.869581673e-07
1.933157459e-07
1.995221366e-07
2.055911286e-07
2.115343203e-07
2.173612336e-07
2.230793513e-07
2.28694141e-07
2.342089854e-07
2.396251071e-07
2.449415687e-07
2.501554123e-07
2.552619515e-07
2.602546445e-07
2.651357262e-07
2.697941569e-07
2.752431626e-07
2.740612822e-07
3.040525515e-07
1.897279534e-07
6.71206627e-07
1.643642883e-06
6.53600605e-06
7.004963408e-06
2.240844837e-08
4.51101292e-08
6.187336441e-08
7.587922281e-08
8.818419348e-08
9.929993773e-08
1.09522665e-07
1.190429003e-07
1.279922162e-07
1.364663071e-07
1.445376027e-07
1.522626994e-07
1.596869892e-07
1.668476711e-07
1.737757762e-07
1.804975577e-07
1.870354537e-07
1.934087869e-07
1.996342486e-07
2.0572618e-07
2.116967232e-07
2.175557947e-07
2.23311116e-07
2.289681564e-07
2.345300254e-07
2.399973449e-07
2.45368122e-07
2.506377691e-07
2.557993982e-07
2.608437166e-07
2.657703354e-07
2.704597063e-07
2.759669049e-07
2.746651955e-07
3.016641686e-07
2.512952851e-07
7.29315542e-07
1.825460102e-06
6.642715178e-06
7.166257547e-06
2.241281025e-08
4.51201984e-08
6.188629761e-08
7.589478899e-08
8.820216448e-08
9.932024992e-08
1.095453904e-07
1.190682444e-07
1.280205314e-07
1.364981181e-07
1.445736415e-07
1.523039457e-07
1.597347169e-07
1.66903501e-07
1.738417318e-07
1.805761257e-07
1.871296486e-07
1.935221836e-07
1.997709832e-07
2.058909856e-07
2.118949933e-07
2.177936591e-07
2.235953197e-07
2.293057297e-07
2.349278595e-07
2.404617176e-07
2.459041371e-07
2.512486298e-07
2.564856159e-07
2.616025889e-07
2.665939857e-07
2.713619466e-07
2.766351244e-07
2.775596375e-07
2.973822635e-07
2.245385158e-07
7.921114378e-07
2.009301502e-06
6.744881009e-06
7.329409846e-06
2.24178504e-08
4.513141783e-08
6.19010287e-08
7.591271216e-08
8.822306767e-08
9.934409655e-08
1.09572295e-07
1.190984725e-07
1.280545182e-07
1.365364988e-07
1.446172931e-07
1.523540377e-07
1.597927712e-07
1.669714592e-07
1.739220274e-07
1.806717601e-07
1.872442704e-07
1.936601737e-07
1.999375392e-07
2.060921632e-07
2.121377082e-07
2.180857288e-07
2.239455143e-07
2.297236396e-07
2.354233801e-07
2.410443222e-07
2.46582081e-07
2.520279356e-07
2.573689587e-07
2.625886442e-07
2.676778116e-07
2.725295823e-07
2.779420204e-07
2.781400328e-07
3.025957942e-07
2.407179547e-07
9.180680264e-07
2.167089211e-06
6.840930448e-06
7.494842141e-06
2.242355753e-08
4.514392124e-08
6.191770832e-08
7.593321409e-08
8.824720353e-08
9.937187028e-08
1.096038802e-07
1.191342161e-07
1.280949633e-07
1.365824227e-07
1.446697581e-07
1.524144542e-07
1.59862973e-07
1.670537886e-07
1.740194319e-07
1.807878965e-07
1.873836171e-07
1.938281463e-07
2.00140613e-07
2.063380073e-07
2.124353026e-07
2.184454186e-07
2.243790256e-07
2.302440044e-07
2.360445591e-07
2.417804434e-07
2.474463021e-07
2.530308619e-07
2.585169211e-07
2.638827195e-07
2.69119976e-07
2.740581284e-07
2.800734608e-07
2.770141537e-07
3.202550352e-07
2.915686142e-07
8.232472739e-07
2.283406049e-06
6.931013217e-06
7.662746223e-06
2.242992594e-08
4.515781529e-08
6.193647385e-08
7.595650743e-08
8.827487015e-08
9.940397145e-08
1.096406706e-07
1.191761507e-07
1.281427261e-07
1.366369737e-07
1.447323962e-07
1.524868961e-07
1.599474471e-07
1.671531451e-07
1.741372674e-07
1.809286953e-07
1.875529058e-07
1.940326656e-07
2.003885118e-07
2.066390603e-07
2.128011419e-07
2.18889775e-07
2.249179141e-07
2.308956328e-07
2.36828872e-07
2.427184568e-07
2.48558807e-07
2.543359743e-07
2.600271241e-07
2.656046096e-07
2.710504444e-07
2.762616604e-07
2.819712821e-07
2.835631585e-07
3.008318631e-07
2.56742728e-07
1.615117926e-07
2.454943503e-06
7.013484971e-06
7.832746191e-06
2.243699345e-08
4.517317249e-08
6.195745599e-08
7.598279406e-08
8.830635852e-08
9.944080234e-08
1.09683207e-07
1.192249897e-07
1.281987358e-07
1.367013501e-07
1.448067402e-07
1.525733128e-07
1.600486664e-07
1.672726622e-07
1.74279505e-07
1.810991909e-07
1.877585241e-07
1.942818427e-07
2.006915519e-07
2.070084975e-07
2.132521648e-07
2.19440727e-07
2.255908427e-07
2.31716406e-07
2.378266587e-07
2.439252297e-07
2.500081243e-07
2.560593845e-07
2.62049211e-07
2.679432224e-07
2.737043508e-07
2.794029454e-07
2.845034403e-07
2.913253869e-07
2.996211279e-07
2.215888503e-07
4.073337167e-07
2.611595499e-06
7.084127058e-06
8.004702326e-06
2.244478978e-08
4.519004994e-08
6.198076588e-08
7.601225471e-08
8.83419411e-08
9.948275496e-08
1.097320356e-07
1.192814764e-07
1.28263986e-07
1.367768637e-07
1.448945068e-07
1.526759333e-07
1.601695067e-07
1.674160384e-07
1.744508963e-07
1.813054834e-07
1.880082952e-07
1.945857044e-07
2.010625934e-07
2.074628633e-07
2.138097891e-07
2.201263159e-07
2.264351018e-07
2.327566042e-07
2.391064144e-07
2.454950496e-07
2.519251435e-07
2.583814522e-07
2.64824177e-07
2.71205626e-07
2.774827163e-07
2.838253822e-07
2.891844611e-07
2.980617196e-07
3.17530803e-07
1.416260515e-07
1.050855371e-06
2.910689463e-06
7.150453452e-06
8.179376957e-06
2.245333243e-08
4.520847925e-08
6.200648141e-08
7.604503337e-08
8.838185539e-08
9.953019463e-08
1.097876923e-07
1.193463704e-07
1.283395267e-07
1.368649391e-07
1.449976041e-07
1.527972924e-07
1.603133101e-07
1.675876465e-07
1.746571377e-07
1.815549805e-07
1.883118283e-07
1.949566721e-07
2.015176673e-07
2.080228898e-07
2.145010158e-07
2.2098239e-07
2.274995616e-07
2.340847397e-07
2.407664119e-07
2.475711863e-07
2.545163696e-07
2.615758636e-07
2.686629339e-07
2.756782403e-07
2.82645794e-07
2.894862815e-07
2.975016252e-07