/*--------------------------------*- C++ -*----------------------------------*\
| =========                 |                                                 |
| \\      /  F ield         | OpenFOAM: The Open Source CFD Toolbox           |
|  \\    /   O peration     | Version:  v1912                                 |
|   \\  /    A nd           | Website:  www.openfoam.com                      |
|    \\/     M anipulation  |                                                 |
\*---------------------------------------------------------------------------*/
FoamFile
{
    version     2.0;
    format      ascii;
    class       surfaceScalarField;
    location    "0.6";
    object      phi;
}
// * * * * * * * * * * * * * * * * * * * * * * * * * * * * * * * * * * * * * //

dimensions      [0 3 -1 0 0 0 0];
oriented        oriented;


internalField   nonuniform List<scalar> 
9440
(
1.528637242e-10
-1.528637242e-10
6.161658864e-10
-4.633022795e-10
1.389531031e-09
-7.733653865e-10
2.47250008e-09
-1.082969408e-09
3.864565094e-09
-1.392065493e-09
5.565046949e-09
-1.700482456e-09
7.573053843e-09
-2.008007622e-09
9.887418082e-09
-2.314365092e-09
1.250664052e-08
-2.619223418e-09
1.542883714e-08
-2.922197736e-09
1.865169102e-08
-3.22285512e-09
2.217241354e-08
-3.520723873e-09
2.598772324e-08
-3.81531118e-09
3.00938458e-08
-4.10612416e-09
3.448654031e-08
-4.392696212e-09
3.91611574e-08
-4.6746189e-09
4.411273476e-08
-4.951579281e-09
4.933613553e-08
-5.223402789e-09
5.482623505e-08
-5.490101641e-09
6.057816166e-08
-5.751928829e-09
6.658759776e-08
-6.009438434e-09
7.28511482e-08
-6.263552878e-09
7.936678458e-08
-6.515638918e-09
8.613437762e-08
-6.7675957e-09
9.315633786e-08
-7.021963025e-09
1.004384009e-07
-7.282065942e-09
1.079906159e-07
-7.552218013e-09
1.158285815e-07
-7.837968774e-09
1.239751811e-07
-8.146602935e-09
1.324630849e-07
-8.487907136e-09
1.4133851e-07
-8.875428683e-09
1.506673328e-07
-9.328826392e-09
1.605467423e-07
-9.879413295e-09
1.711201131e-07
-1.057337461e-08
1.826800637e-07
-1.155995455e-08
1.95159042e-07
-1.247898246e-08
2.121175196e-07
-1.695848154e-08
2.103162036e-07
1.801311423e-09
3.671672644e-07
-1.56864387e-07
3.771563821e-07
1.611034576e-10
-3.139672996e-10
6.446474582e-10
-9.468466169e-10
1.451228009e-09
-1.579946489e-09
2.580677731e-09
-2.212419897e-09
4.032703228e-09
-2.844091975e-09
5.806885658e-09
-3.474666095e-09
7.902636148e-09
-4.103759549e-09
1.031912921e-08
-4.730859813e-09
1.305526159e-08
-5.355357695e-09
1.610958895e-08
-5.976527212e-09
1.948027232e-08
-6.593540828e-09
2.316503947e-08
-7.205493574e-09
2.716116089e-08
-7.811435355e-09
3.146544744e-08
-8.410413669e-09
3.607427499e-08
-9.001526911e-09
4.098364179e-08
-9.583989035e-09
4.618926427e-08
-1.015720529e-08
5.16867172e-08
-1.072085943e-08
5.74716237e-08
-1.127501203e-08
6.353990138e-08
-1.182021058e-08
6.988807072e-08
-1.235761205e-08
7.651363393e-08
-1.288912056e-08
8.341553173e-08
-1.341754141e-08
9.05946877e-08
-1.394675656e-08
9.805466751e-08
-1.448194795e-08
1.058024691e-07
-1.50298729e-08
1.13849488e-07
-1.559924245e-08
1.222128176e-07
-1.620130416e-08
1.309168978e-07
-1.685068922e-08
1.399957685e-07
-1.756678406e-08
1.494964695e-07
-1.837613608e-08
1.594842588e-07
-1.931662226e-08
1.70050867e-07
-2.044602832e-08
1.813247612e-07
-2.184727583e-08
1.935159891e-07
-2.375118947e-08
2.067212684e-07
-2.568426945e-08
2.247900347e-07
-3.502725492e-08
2.300494421e-07
-3.458102055e-09
2.987093646e-07
-2.255505582e-07
6.873675281e-07
1.613917088e-10
-4.753591022e-10
6.455318448e-10
-1.430987035e-09
1.452694786e-09
-2.387109896e-09
2.582870101e-09
-3.342595862e-09
4.035853928e-09
-4.297076641e-09
5.811297342e-09
-5.250110541e-09
7.908667925e-09
-6.201131357e-09
1.032721117e-08
-7.149404484e-09
1.306587792e-08
-8.094026061e-09
1.612326944e-08
-9.033920537e-09
1.949758513e-08
-9.967858515e-09
2.318657925e-08
-1.089448988e-08
2.718753327e-08
-1.181239174e-08
3.149724971e-08
-1.272013264e-08
3.611207311e-08
-1.361635301e-08
4.102794349e-08
-1.449986229e-08
4.624048854e-08
-1.536975336e-08
5.174515993e-08
-1.622553399e-08
5.753741964e-08
-1.706727508e-08
6.361298174e-08
-1.789577619e-08
6.996811602e-08
-1.871275e-08
7.66000194e-08
-1.952102779e-08
8.350726268e-08
-2.032478872e-08
9.069031902e-08
-2.112981711e-08
9.815219364e-08
-2.194382697e-08
1.058991685e-07
-2.277685239e-08
1.139416864e-07
-2.364176512e-08
1.22295461e-07
-2.45550837e-08
1.309828621e-07
-2.553809557e-08
1.400346454e-07
-2.661857263e-08
1.494922428e-07
-2.783373908e-08
1.59410832e-07
-2.923521706e-08
1.698633447e-07
-3.089854691e-08
1.80946795e-07
-3.29307322e-08
1.927971084e-07
-3.560150878e-08
2.054429867e-07
-3.833015451e-08
2.204908951e-07
-5.007517015e-08
2.298914028e-07
-1.285860955e-08
2.578664392e-07
-2.535776418e-07
9.58312282e-07
1.615028909e-10
-6.368620834e-10
6.459390414e-10
-1.915423455e-09
1.453414011e-09
-3.194585313e-09
2.583948659e-09
-4.473131135e-09
4.037412492e-09
-5.750541282e-09
5.813529508e-09
-7.02622855e-09
7.911841935e-09
-8.299444964e-09
1.033166085e-08
-9.569224764e-09
1.307200038e-08
-1.083436716e-08
1.613151532e-08
-1.209343722e-08
1.950844341e-08
-1.334478853e-08
2.320055688e-08
-1.458660547e-08
2.720512898e-08
-1.581696612e-08
3.151892156e-08
-1.703392767e-08
3.613819955e-08
-1.823563361e-08
4.105877812e-08
-1.942044363e-08
4.627610834e-08
-2.058708651e-08
5.178540692e-08
-2.173483566e-08
5.758183568e-08
-2.286370707e-08
6.366073617e-08
-2.397468007e-08
7.001792422e-08
-2.506994162e-08
7.66500493e-08
-2.615315659e-08
8.355502544e-08
-2.722976876e-08
9.073253611e-08
-2.830733186e-08
9.818461793e-08
-2.939591305e-08
1.059163381e-07
-3.050857695e-08
1.139365725e-07
-3.166200416e-08
1.222588574e-07
-3.287737342e-08
1.309024214e-07
-3.418166465e-08
1.398932845e-07
-3.560944088e-08
1.492652623e-07
-3.72057222e-08
1.590606954e-07
-3.903065569e-08
1.693299411e-07
-4.116779817e-08
1.801287766e-07
-4.37295737e-08
1.915039796e-07
-4.697671732e-08
2.034311547e-07
-5.025733592e-08
2.157836011e-07
-6.24276256e-08
2.272345061e-07
-2.430951376e-08
2.407765425e-07
-2.671945699e-07
1.213434704e-06
1.615980082e-10
-7.984601807e-10
6.462754618e-10
-2.400101175e-09
1.454071236e-09
-4.002381529e-09
2.585026165e-09
-5.604086682e-09
4.039080208e-09
-7.204596122e-09
5.816043531e-09
-8.803192853e-09
7.91555087e-09
-1.039895347e-08
1.033700335e-08
-1.199067859e-08
1.30795001e-08
-1.357686545e-08
1.614176887e-08
-1.515570771e-08
1.952210086e-08
-1.672512242e-08
2.321829481e-08
-1.828280149e-08
2.722761522e-08
-1.982628878e-08
3.15467715e-08
-2.135308637e-08
3.61719237e-08
-2.286078839e-08
4.109872079e-08
-2.434724346e-08
4.632237747e-08
-2.581074608e-08
5.183779499e-08
-2.725025623e-08
5.763973162e-08
-2.86656469e-08
6.372302728e-08
-3.005797909e-08
7.008288634e-08
-3.142980421e-08
7.671522224e-08
-3.278549619e-08
8.361706803e-08
-3.413161842e-08
9.078705135e-08
-3.547731922e-08
9.822592715e-08
-3.683479308e-08
1.059371761e-07
-3.821983032e-08
1.139276524e-07
-3.965248509e-08
1.222082234e-07
-4.115794916e-08
1.307943677e-07
-4.27678139e-08
1.397066867e-07
-4.452176498e-08
1.489708735e-07
-4.646991425e-08
1.586165189e-07
-4.867630655e-08
1.686733484e-07
-5.122463321e-08
1.791633385e-07
-5.421956979e-08
1.900677913e-07
-5.788117565e-08
2.013889422e-07
-6.157849195e-08
2.12133481e-07
-7.317217458e-08
2.245173334e-07
-3.669336618e-08
2.298210942e-07
-2.725951075e-07
1.458454168e-06
1.61676762e-10
-9.601370313e-10
6.465575294e-10
-2.884982207e-09
1.454663213e-09
-4.810487651e-09
2.586068468e-09
-6.73549255e-09
4.040791278e-09
-8.659319723e-09
5.81874343e-09
-1.058114598e-08
7.919672566e-09
-1.249988376e-08
1.034309433e-08
-1.44141017e-08
1.308821685e-08
-1.632198949e-08
1.61538628e-08
-1.822135536e-08
1.953839463e-08
-2.010965614e-08
2.323964883e-08
-2.198405775e-08
2.725488373e-08
-2.384152592e-08
3.15807476e-08
-2.567895264e-08
3.621327326e-08
-2.749331662e-08
4.114790524e-08
-2.928187816e-08
4.63795652e-08
-3.104240892e-08
5.190276188e-08
-3.277345594e-08
5.771175009e-08
-3.44746383e-08
6.380074339e-08
-3.614697575e-08
7.016418393e-08
-3.779324825e-08
7.67970702e-08
-3.941838614e-08
8.369534418e-08
-4.102989625e-08
9.085633912e-08
-4.263831819e-08
9.827925943e-08
-4.42577176e-08
1.059657022e-07
-4.59062775e-08
1.139201804e-07
-4.760696784e-08
1.221505979e-07
-4.93883714e-08
1.306685161e-07
-5.128573699e-08
1.394891537e-07
-5.334240769e-08
1.486307893e-07
-5.561155505e-08
1.581127859e-07
-5.815830861e-08
1.679511216e-07
-6.106297433e-08
1.781483354e-07
-6.441678959e-08
1.88653127e-07
-6.838597317e-08
1.995041517e-07
-7.242952067e-08
2.093452727e-07
-8.301330604e-08
2.227420724e-07
-5.009016699e-08
2.203404632e-07
-2.703064198e-07
1.694538178e-06
1.617410163e-10
-1.121878136e-09
6.467901607e-10
-3.370031614e-09
1.455179325e-09
-5.618877249e-09
2.587036784e-09
-7.867350616e-09
4.042474006e-09
-1.011475773e-08
5.821523751e-09
-1.236019668e-08
7.924070071e-09
-1.460243122e-08
1.034976972e-08
-1.683980267e-08
1.309796669e-08
-1.907018797e-08
1.616760375e-08
-2.129099411e-08
1.955713598e-08
-2.349919024e-08
2.326445254e-08
-2.569137636e-08
2.728681189e-08
-2.786388748e-08
3.162079646e-08
-3.001293958e-08
3.626229355e-08
-3.213481625e-08
4.120650882e-08
-3.422609614e-08
4.644801849e-08
-3.628392145e-08
5.198086564e-08
-3.830630611e-08
5.779870645e-08
-4.029248229e-08
6.389500965e-08
-4.224328229e-08
7.02633118e-08
-4.416155391e-08
7.689752907e-08
-4.605260708e-08
8.379232122e-08
-4.792469224e-08
9.094351533e-08
-4.978951631e-08
9.834854309e-08
-5.166274954e-08
1.060068977e-07
-5.356463644e-08
1.13920563e-07
-5.552063766e-08
1.220943477e-07
-5.756216087e-08
1.305360166e-07
-5.972741081e-08
1.392559787e-07
-6.206237481e-08
1.482664259e-07
-6.462200743e-08
1.575797151e-07
-6.747160325e-08
1.672041149e-07
-7.068737948e-08
1.771378185e-07
-7.435049893e-08
1.873337779e-07
-7.858193912e-08
1.978744813e-07
-8.297022735e-08
2.072746584e-07
-9.241349328e-08
2.230541977e-07
-6.586970855e-08
2.119831678e-07
-2.593533218e-07
1.922658071e-06
1.617893369e-10
-1.28366756e-09
6.469659364e-10
-3.855208474e-09
1.455593165e-09
-6.42750491e-09
2.58787393e-09
-8.999631982e-09
4.044033724e-09
-1.15709183e-08
5.824249824e-09
-1.414041374e-08
7.928569903e-09
-1.670675244e-08
1.035682175e-08
-1.926805584e-08
1.310851582e-08
-2.182188353e-08
1.618274427e-08
-2.436522423e-08
1.957808047e-08
-2.689452829e-08
2.32924858e-08
-2.940578371e-08
2.732322999e-08
-3.189463387e-08
3.166682966e-08
-3.435654161e-08
3.631901314e-08
-3.678700225e-08
4.127471788e-08
-3.918180357e-08
4.652812674e-08
-4.153733316e-08
5.207274931e-08
-4.385093168e-08
5.79015533e-08
-4.612128944e-08
6.400714999e-08
-4.834888231e-08
7.038203537e-08
-5.053644277e-08
7.701888692e-08
-5.268946228e-08
8.391090973e-08
-5.481671887e-08
9.105223463e-08
-5.693084521e-08
9.84383395e-08
-5.904885858e-08
1.060664535e-07
-6.11927548e-08
1.13935933e-07
-6.339012167e-08
1.220485201e-07
-6.567475263e-08
1.304083877e-07
-6.808728331e-08
1.390218466e-07
-7.067583867e-08
1.478965711e-07
-7.349673705e-08
1.570400123e-07
-7.661504989e-08
1.664565385e-07
-8.010391101e-08
1.761465563e-07
-8.404052207e-08
1.860871406e-07
-8.852253056e-08
1.964541042e-07
-9.333719396e-08
2.057380304e-07
-1.01697429e-07
2.231915964e-07
-8.332327784e-08
2.04139857e-07
-2.404285412e-07
2.143177419e-06
1.618180561e-10
-1.445485702e-09
6.470690999e-10
-4.340459775e-09
1.455864897e-09
-7.236301133e-09
2.588504499e-09
-1.013227218e-08
4.045351575e-09
-1.302776615e-08
5.826755591e-09
-1.592181869e-08
7.932959222e-09
-1.881295719e-08
1.036399546e-08
-2.169909338e-08
1.311957641e-08
-2.457746595e-08
1.61989777e-08
-2.744462718e-08
1.960092194e-08
-3.029647435e-08
2.332346797e-08
-3.312833175e-08
2.736391356e-08
-3.593508163e-08
3.171871542e-08
-3.87113458e-08
3.638343518e-08
-4.145172452e-08
4.135271827e-08
-4.415108932e-08
4.662031211e-08
-4.680492982e-08
5.217913033e-08
-4.940975289e-08
5.802136808e-08
-5.196353033e-08
6.41386728e-08
-5.446619033e-08
7.052237218e-08
-5.692014562e-08
7.716375818e-08
-5.933085192e-08
8.40544224e-08
-6.17073869e-08
9.118662953e-08
-6.40630563e-08
9.855374738e-08
-6.641598056e-08
1.061506205e-07
-6.878963229e-08
1.139739291e-07
-7.121343472e-08
1.220224271e-07
-7.372325524e-08
1.302969969e-07
-7.636185796e-08
1.38800445e-07
-7.917929171e-08
1.47537024e-07
-8.223332112e-08
1.565109131e-07
-8.558894438e-08
1.65724412e-07
-8.931741521e-08
1.751787195e-07
-9.349483455e-08
1.848602006e-07
-9.820401909e-08
1.94984352e-07
-1.034613485e-07
2.042107771e-07
-1.109238628e-07
2.228927224e-07
-1.020052273e-07
1.97108429e-07
-2.147784481e-07
2.356813751e-06
1.618216381e-10
-1.607307426e-09
6.470770015e-10
-4.825715394e-09
1.455941882e-09
-8.045166437e-09
2.588833849e-09
-1.126516474e-08
4.04628196e-09
-1.448521502e-08
5.828839661e-09
-1.770437733e-08
7.936980601e-09
-2.092109923e-08
1.037098205e-08
-2.413309611e-08
1.313079837e-08
-2.733728373e-08
1.621592844e-08
-3.052975888e-08
1.962528126e-08
-3.370582899e-08
2.335704508e-08
-3.686009755e-08
2.740856894e-08
-3.998660764e-08
3.177626233e-08
-4.307904151e-08
3.645551928e-08
-4.613098395e-08
4.144067585e-08
-4.913624853e-08
4.672500814e-08
-5.208926491e-08
5.23007772e-08
-5.498552492e-08
5.815932725e-08
-5.78220835e-08
6.429124126e-08
-6.059810763e-08
7.06865568e-08
-6.331546462e-08
7.733504058e-08
-6.59793393e-08
8.422651798e-08
-6.859886808e-08
9.135123711e-08
-7.118777938e-08
9.870030396e-08
-7.376505153e-08
1.062660784e-07
-7.635541102e-08
1.140425211e-07
-7.89898818e-08
1.220254727e-07
-8.170621152e-08
1.302127939e-07
-8.454918388e-08
1.386043434e-07
-8.757084622e-08
1.472014854e-07
-9.083046807e-08
1.560060547e-07
-9.439351899e-08
1.650195134e-07
-9.833087943e-08
1.742432294e-07
-1.02718555e-07
1.836587276e-07
-1.076195248e-07
1.934676406e-07
-1.13270265e-07
2.02300341e-07
-1.197565711e-07
2.210274236e-07
-1.207323145e-07
1.907964354e-07
-1.846856792e-07
2.564222228e-06
1.617928594e-10
-1.76910037e-09
6.469606314e-10
-5.310883419e-09
1.455758722e-09
-8.853964946e-09
2.588746847e-09
-1.239815345e-08
4.046649839e-09
-1.594311876e-08
5.830261118e-09
-1.948798953e-08
7.940326269e-09
-2.303116548e-08
1.037741152e-08
-2.657018263e-08
1.314176026e-08
-3.01016339e-08
1.623314117e-08
-3.362114141e-08
1.965069376e-08
-3.712338336e-08
2.339277508e-08
-4.060218083e-08
2.745681671e-08
-4.405065139e-08
3.183920118e-08
-4.746142827e-08
3.653516148e-08
-5.082694671e-08
4.153871453e-08
-5.41398042e-08
4.684263597e-08
-5.739318913e-08
5.243848395e-08
-6.058137583e-08
5.831667879e-08
-6.370028145e-08
6.446664334e-08
-6.674807544e-08
7.087700728e-08
-6.972583199e-08
7.753587564e-08
-7.263821125e-08
8.443115744e-08
-7.549415365e-08
9.155094175e-08
-7.830756759e-08
9.888391897e-08
-8.109803282e-08
1.064198533e-07
-8.389134956e-08
1.141499267e-07
-8.671995967e-08
1.220671174e-07
-8.962340675e-08
1.301664579e-07
-9.26485291e-08
1.384451815e-07
-9.584957474e-08
1.469021515e-07
-9.928744295e-08
1.555373995e-07
-1.030287721e-07
1.64351817e-07
-1.071453027e-07
1.733477503e-07
-1.117144927e-07
1.825136107e-07
-1.167853925e-07
1.920090362e-07
-1.227656944e-07
2.003907951e-07
-1.281383373e-07
2.179524578e-07
-1.382939823e-07
1.850165534e-07
-1.518925647e-07
2.765901597e-06
1.617228492e-10
-1.930823304e-09
6.466846396e-10
-5.795845461e-09
1.455236679e-09
-9.662517402e-09
2.588106287e-09
-1.353102363e-08
4.046247623e-09
-1.740126084e-08
5.830734794e-09
-2.127247762e-08
7.942631658e-09
-2.514306343e-08
1.038284437e-08
-2.901039659e-08
1.315195898e-08
-3.287074993e-08
1.625006839e-08
-3.671925241e-08
1.967659454e-08
-4.054991128e-08
2.343011102e-08
-4.435569923e-08
2.750817257e-08
-4.812871504e-08
3.190716353e-08
-5.186042149e-08
3.662217121e-08
-5.554195682e-08
4.164689148e-08
-5.916452706e-08
4.697357794e-08
-6.271987834e-08
5.259304214e-08
-6.620084295e-08
5.849471284e-08
-6.960195523e-08
6.466676059e-08
-7.292012643e-08
7.109629187e-08
-7.615536668e-08
7.776961419e-08
-7.931153712e-08
8.467256885e-08
-8.239711204e-08
9.179093083e-08
-8.542593346e-08
9.911083378e-08
-8.841793981e-08
1.066192841e-07
-9.139980413e-08
1.143046158e-07
-9.440529569e-08
1.22156941e-07
-9.747573647e-08
1.301685853e-07
-1.00660178e-07
1.38334192e-07
-1.040151863e-07
1.466504395e-07
-1.076036953e-07
1.55116072e-07
-1.114944094e-07
1.63731382e-07
-1.157606185e-07
1.724985085e-07
-1.204816234e-07
1.814083478e-07
-1.256952388e-07
1.905877608e-07
-1.319451115e-07
1.986508866e-07
-1.3620147e-07
2.155510535e-07
-1.551941545e-07
1.797876857e-07
-1.162733756e-07
2.962385021e-06
1.616010421e-10
-2.092424429e-09
6.462070793e-10
-6.280451747e-09
1.454282744e-09
-1.047059348e-08
2.586750774e-09
-1.466349224e-08
4.044831727e-09
-1.885934253e-08
5.829926015e-09
-2.305757281e-08
7.943468197e-09
-2.725660668e-08
1.038676218e-08
-3.145369182e-08
1.316079817e-08
-3.564478732e-08
1.62660561e-08
-3.982451191e-08
1.970230168e-08
-4.39861586e-08
2.346838208e-08
-4.812178154e-08
2.756202569e-08
-5.222236071e-08
3.197965787e-08
-5.627805591e-08
3.671624488e-08
-6.027854623e-08
4.176516893e-08
-6.421345369e-08
4.711814805e-08
-6.807286018e-08
5.276521019e-08
-7.184790798e-08
5.869472998e-08
-7.553147807e-08
6.489353651e-08
-7.911893617e-08
7.134709784e-08
-8.260893138e-08
7.803978487e-08
-8.600422767e-08
8.495521537e-08
-8.931254623e-08
9.207667849e-08
-9.254740044e-08
9.938759559e-08
-9.572886091e-08
1.068720272e-07
-9.88842399e-08
1.145153542e-07
-1.020486269e-07
1.223047648e-07
-1.052651516e-07
1.302297941e-07
-1.085852118e-07
1.382824046e-07
-1.120678017e-07
1.464574793e-07
-1.15778775e-07
1.547529065e-07
-1.197898413e-07
1.631686549e-07
-1.241763727e-07
1.717066739e-07
-1.290196466e-07
1.803586084e-07
-1.343471799e-07
1.89223783e-07
-1.408102906e-07
1.970318053e-07
-1.440094987e-07
2.132254162e-07
-1.713876069e-07
1.749723342e-07
-7.816500064e-08
3.154075685e-06
1.614150734e-10
-2.253839586e-09
6.454789342e-10
-6.764515855e-09
1.452788456e-09
-1.127790341e-08
2.584492278e-09
-1.579519663e-08
4.042118617e-09
-2.03169696e-08
5.827444712e-09
-2.48428998e-08
7.942335292e-09
-2.937149832e-08
1.038855731e-08
-3.389991506e-08
1.316757515e-08
-3.842380655e-08
1.628032819e-08
-4.29372665e-08
1.972699789e-08
-4.743283001e-08
2.350677223e-08
-5.190155777e-08
2.761761442e-08
-5.633320495e-08
3.205604252e-08
-6.071648621e-08
3.681693664e-08
-6.503944272e-08
4.189338279e-08
-6.928990237e-08
4.727655898e-08
-7.345603907e-08
5.295567972e-08
-7.752703158e-08
5.891800791e-08
-8.149380927e-08
6.514894411e-08
-8.534987555e-08
7.163220099e-08
-8.90921916e-08
7.835006826e-08
-9.272209843e-08
8.52837738e-08
-9.624625542e-08
9.241393638e-08
-9.967756684e-08
9.972104786e-08
-1.030359763e-07
1.07186065e-07
-1.063492612e-07
1.147912059e-07
-1.096537721e-07
1.225205859e-07
-1.12994536e-07
1.303606724e-07
-1.164253028e-07
1.383009456e-07
-1.200080796e-07
1.463345633e-07
-1.238123976e-07
1.544585883e-07
-1.279138709e-07
1.626736647e-07
-1.32391455e-07
1.709833299e-07
-1.37329316e-07
1.793834345e-07
-1.427472909e-07
1.879501854e-07
-1.493770463e-07
1.955545315e-07
-1.516138509e-07
2.111952679e-07
-1.870276852e-07
1.704976932e-07
-3.761183567e-08
3.341307857e-06
1.6115063e-10
-2.414990298e-09
6.444434971e-10
-7.247808968e-09
1.450628405e-09
-1.208408872e-08
2.581113429e-09
-1.692568222e-08
4.037780159e-09
-2.177363706e-08
5.822839077e-09
-2.66279596e-08
7.938651449e-09
-3.148731174e-08
1.038752126e-08
-3.634878607e-08
1.317146662e-08
-4.120775328e-08
1.62919691e-08
-4.605777052e-08
1.974970924e-08
-5.089057185e-08
2.354429595e-08
-5.569614633e-08
2.767400006e-08
-6.046291108e-08
3.213549577e-08
-6.517798409e-08
3.692362582e-08
-6.982757511e-08
4.20312081e-08
-7.439748715e-08
4.744888604e-08
-7.887371967e-08
5.316503897e-08
-8.324318734e-08
5.91657657e-08
-8.749453899e-08
6.543495261e-08
-9.161906561e-08
7.195443682e-08
-9.561167912e-08
7.87042754e-08
-9.947194047e-08
8.566312519e-08
-1.032051088e-07
9.280870938e-08
-1.068231548e-07
1.001183574e-07
-1.103456283e-07
1.075697298e-07
-1.138006376e-07
1.151415618e-07
-1.172256082e-07
1.228145853e-07
-1.206675639e-07
1.305721636e-07
-1.241828855e-07
1.384012345e-07
-1.27837155e-07
1.46293076e-07
-1.31704244e-07
1.542438902e-07
-1.358646894e-07
1.622553545e-07
-1.40402925e-07
1.703345074e-07
-1.454084733e-07
1.784873428e-07
-1.509001323e-07
1.867918612e-07
-1.576815696e-07
1.942978852e-07
-1.591198807e-07
2.095636162e-07
-2.022920241e-07
1.66249702e-07
5.558795738e-09
3.524304618e-06
1.607912691e-10
-2.575781649e-09
6.430356369e-10
-7.73005358e-09
1.447658533e-09
-1.288871202e-08
2.576364399e-09
-1.805438865e-08
4.031438735e-09
-2.322871212e-08
5.81558835e-09
-2.84121101e-08
7.931744362e-09
-3.360346879e-08
1.038283197e-08
-3.879987488e-08
1.317151252e-08
-4.399643519e-08
1.629990433e-08
-4.918616383e-08
1.976928284e-08
-5.435995203e-08
2.357977203e-08
-5.950663735e-08
2.773003618e-08
-6.461317721e-08
3.221698275e-08
-6.966493281e-08
3.703548091e-08
-7.464607558e-08
4.217812078e-08
-7.954012949e-08
4.763502784e-08
-8.433062936e-08
5.33937333e-08
-8.90018956e-08
5.943912557e-08
-9.353993421e-08
6.575349354e-08
-9.793343668e-08
7.231667585e-08
-1.021748647e-07
7.910633181e-08
-1.062615999e-07
8.609834263e-08
-1.101971232e-07
9.326726693e-08
-1.139920828e-07
1.00587051e-07
-1.176654162e-07
1.080317459e-07
-1.212453365e-07
1.155763221e-07
-1.247701884e-07
1.231977636e-07
-1.282890097e-07
1.308761019e-07
-1.318612282e-07
1.385953981e-07
-1.355564556e-07
1.463448301e-07
-1.39453681e-07
1.541196678e-07
-1.436395315e-07
1.619221593e-07
-1.482054221e-07
1.697627674e-07
-1.532490857e-07
1.776583111e-07
-1.587956818e-07
1.857028185e-07
-1.65726082e-07
1.931336622e-07
-1.6655073e-07
2.080450098e-07
-2.172011773e-07
1.622604009e-07
5.120212749e-08
3.703323051e-06
1.60318211e-10
-2.736099941e-09
6.411809664e-10
-8.210916578e-09
1.443714235e-09
-1.369124569e-08
2.569959475e-09
-1.918063444e-08
4.022661917e-09
-2.468141527e-08
5.805094589e-09
-3.019454364e-08
7.920840553e-09
-3.571921578e-08
1.037353977e-08
-4.125257528e-08
1.316659851e-08
-4.678949527e-08
1.630287894e-08
-5.232244575e-08
1.978436117e-08
-5.784143591e-08
2.361179287e-08
-6.333407085e-08
2.778433516e-08
-6.878572147e-08
3.229921948e-08
-7.417981924e-08
3.715141933e-08
-7.949827771e-08
4.233335526e-08
-8.472206786e-08
4.783466231e-08
-8.9831939e-08
5.36420213e-08
-9.480925733e-08
5.973907058e-08
-9.963698641e-08
6.610642112e-08
-1.043007903e-07
7.272178969e-08
-1.087902365e-07
7.956026426e-08
-1.131000778e-07
8.659468514e-08
-1.172315476e-07
9.379620367e-08
-1.211936049e-07
1.011350563e-07
-1.250042727e-07
1.085813784e-07
-1.286916625e-07
1.161060386e-07
-1.322948527e-07
1.236818355e-07
-1.358648108e-07
1.312850366e-07
-1.394644336e-07
1.388964293e-07
-1.431678526e-07
1.465026909e-07
-1.470599475e-07
1.540977735e-07
-1.512346182e-07
1.616842086e-07
-1.557918627e-07
1.692747164e-07
-1.60839598e-07
1.768904851e-07
-1.664114561e-07
1.846223204e-07
-1.734579225e-07
1.918449973e-07
-1.737734123e-07
2.060985841e-07
-2.314517991e-07
1.585212453e-07
9.864038078e-08
3.878612621e-06
1.597101121e-10
-2.895810134e-09
6.387949273e-10
-8.690001635e-09
1.438608285e-09
-1.449105945e-08
2.56157331e-09
-2.030360002e-08
4.010956503e-09
-2.613079917e-08
5.790674322e-09
-3.197426232e-08
7.905053593e-09
-3.783359606e-08
1.03585521e-08
-4.370607495e-08
1.315543676e-08
-4.958638124e-08
1.629943408e-08
-5.546644455e-08
1.979335422e-08
-6.133535767e-08
2.363869353e-08
-6.717941194e-08
2.783523101e-08
-7.298226088e-08
3.238063013e-08
-7.872522045e-08
3.727006305e-08
-8.438771287e-08
4.249585649e-08
-8.994786369e-08
4.804719768e-08
-9.538328274e-08
5.390992553e-08
-1.006719879e-07
6.006639683e-08
-1.057934606e-07
6.649546698e-08
-1.107298634e-07
7.317260094e-08
-1.154673736e-07
8.007012304e-08
-1.199976032e-07
8.715759302e-08
-1.24319021e-07
9.440246558e-08
-1.284384811e-07
1.01770853e-07
-1.323726638e-07
1.092285269e-07
-1.361493403e-07
1.167419614e-07
-1.398082911e-07
1.24279353e-07
-1.434022065e-07
1.318125133e-07
-1.469975983e-07
1.393184752e-07
-1.506738186e-07
1.467808759e-07
-1.545223531e-07
1.541917357e-07
-1.586454822e-07
1.61553222e-07
-1.631533542e-07
1.688793471e-07
-1.681657277e-07
1.76194198e-07
-1.737263122e-07
1.835781206e-07
-1.808418501e-07
1.904743722e-07
-1.806696693e-07
2.037909044e-07
-2.447646646e-07
1.54878389e-07
1.474156161e-07
4.050269649e-06
1.589428141e-10
-3.054753029e-09
6.357817981e-10
-9.16684086e-09
1.432128578e-09
-1.528740663e-08
2.550836901e-09
-2.14223089e-08
3.995762174e-09
-2.757572515e-08
5.771549488e-09
-3.375005049e-08
7.883370941e-09
-3.994541852e-08
1.033661728e-08
-4.615932245e-08
1.313654513e-08
-5.238631039e-08
1.628788145e-08
-5.861778232e-08
1.979440873e-08
-6.484188655e-08
2.365851538e-08
-7.104352034e-08
2.788073764e-08
-7.720448504e-08
3.245930246e-08
-8.330378732e-08
3.738969055e-08
-8.931810315e-08
4.266422709e-08
-9.52224026e-08
4.827171728e-08
-1.009907754e-07
5.419717722e-08
-1.065974505e-07
6.042166022e-08
-1.120179464e-07
6.692219131e-08
-1.172303975e-07
7.36718459e-08
-1.222170313e-07
8.063997101e-08
-1.269657316e-07
8.77926265e-08
-1.314716799e-07
9.509322628e-08
-1.357390844e-07
1.025033608e-07
-1.39782802e-07
1.099838687e-07
-1.43629852e-07
1.174962371e-07
-1.473206634e-07
1.250038347e-07
-1.50909808e-07
1.324732586e-07
-1.544670264e-07
1.39877073e-07
-1.580776371e-07
1.471952513e-07
-1.618405361e-07
1.544171633e-07
-1.658673985e-07
1.615436936e-07
-1.702798895e-07
1.685888594e-07
-1.75210898e-07
1.755776414e-07
-1.807150993e-07
1.825873754e-07
-1.878515893e-07
1.891199538e-07
-1.87202253e-07
2.01504166e-07
-2.571445857e-07
1.51286048e-07
1.974982243e-07
4.21834513e-06
1.57989077e-10
-3.212742186e-09
6.32033621e-10
-9.640885643e-09
1.424035711e-09
-1.607940911e-08
2.537333236e-09
-2.253560697e-08
3.976444626e-09
-2.901483723e-08
5.746837296e-09
-3.5520444e-08
7.854640555e-09
-4.205322277e-08
1.030630673e-08
-4.861098976e-08
1.310822425e-08
-5.51882292e-08
1.626627529e-08
-6.177583478e-08
1.978537473e-08
-6.836098757e-08
2.366896687e-08
-7.492711419e-08
2.791850623e-08
-8.145402626e-08
3.253293579e-08
-8.79182189e-08
3.75081789e-08
-9.429334843e-08
4.283667069e-08
-1.005508967e-07
4.850691884e-08
-1.066610261e-07
5.450315511e-08
-1.125936894e-07
6.080511713e-08
-1.183199112e-07
6.738792892e-08
-1.238132122e-07
7.42221351e-08
-1.290512405e-07
8.127391393e-08
-1.340175136e-07
8.850552962e-08
-1.38703299e-07
9.587598158e-08
-1.431095398e-07
1.033419045e-07
-1.472487284e-07
1.108587238e-07
-1.511466751e-07
1.183821266e-07
-1.548440701e-07
1.258699246e-07
-1.583976098e-07
1.332833625e-07
-1.618804686e-07
1.40589348e-07
-1.653836267e-07
1.477635127e-07
-1.690147055e-07
1.547918314e-07
-1.728957212e-07
1.616731483e-07
-1.771612114e-07
1.684207366e-07
-1.819584909e-07
1.750602435e-07
-1.873546111e-07
1.816657539e-07
-1.944571047e-07
1.877962591e-07
-1.933327634e-07
1.993199246e-07
-2.686634164e-07
1.477291454e-07
2.489555727e-07
4.382875226e-06
1.56818294e-10
-3.36956056e-09
6.274290673e-10
-1.011149665e-08
1.414060418e-09
-1.686604085e-08
2.520592683e-09
-2.364213977e-08
3.952288263e-09
-3.04465335e-08
5.7155396e-09
-3.728369618e-08
7.817556449e-09
-4.41552406e-08
1.026599512e-08
-5.105942956e-08
1.306853276e-08
-5.799076811e-08
1.623238173e-08
-6.493968515e-08
1.976376873e-08
-7.189237612e-08
2.366738021e-08
-7.883072736e-08
2.794577395e-08
-8.573242184e-08
3.259878569e-08
-9.257123261e-08
3.762294487e-08
-9.931750973e-08
4.301092559e-08
-1.059388797e-07
4.875104405e-08
-1.124011469e-07
5.48268149e-08
-1.186694628e-07
6.121665592e-08
-1.247097549e-07
6.789372828e-08
-1.304902874e-07
7.482591282e-08
-1.359834281e-07
8.197601053e-08
-1.411676144e-07
8.930217411e-08
-1.460294658e-07
9.67585825e-08
-1.505659516e-07
1.042964061e-07
-1.547865555e-07
1.118650749e-07
-1.587153476e-07
1.194138591e-07
-1.62392858e-07
1.268938697e-07
-1.658776242e-07
1.342604044e-07
-1.692470074e-07
1.41474225e-07
-1.725974512e-07
1.48505386e-07
-1.760458711e-07
1.553357114e-07
-1.797260508e-07
1.619612887e-07
-1.837867933e-07
1.683947913e-07
-1.88391998e-07
1.746639825e-07
-1.936238072e-07
1.80838038e-07
-2.006311651e-07
1.865233388e-07
-1.990180694e-07
1.971647544e-07
-2.792995384e-07
1.44186268e-07
3.018029588e-07
4.543874469e-06
1.553961998e-10
-3.524956839e-09
6.218322702e-10
-1.057793296e-08
1.401900898e-09
-1.764610987e-08
2.500088159e-09
-2.474032757e-08
3.922488528e-09
-3.186893456e-08
5.67653164e-09
-3.903774012e-08
7.770642888e-09
-4.624935282e-08
1.02138393e-08
-5.350262708e-08
1.30152617e-08
-6.079219176e-08
1.61836461e-08
-6.810807093e-08
1.972673384e-08
-7.543546538e-08
2.365066434e-08
-8.275465953e-08
2.795931e-08
-9.004106929e-08
3.265360413e-08
-9.726552868e-08
3.773087204e-08
-1.043947797e-07
4.318418928e-08
-1.113921992e-07
4.900180644e-08
-1.182187665e-07
5.516661007e-08
-1.248342689e-07
6.165571897e-08
-1.311988665e-07
6.844027881e-08
-1.372748501e-07
7.548538232e-08
-1.430285345e-07
8.275022887e-08
-1.48432464e-07
9.018852944e-08
-1.534677696e-07
9.774920093e-08
-1.581266264e-07
1.053773887e-07
-1.624147467e-07
1.130158435e-07
-1.663538059e-07
1.206066659e-07
-1.699836841e-07
1.280934285e-07
-1.733643905e-07
1.354238863e-07
-1.765774692e-07
1.425526425e-07
-1.797262112e-07
1.494428231e-07
-1.829360561e-07
1.560712369e-07
-1.863544687e-07
1.624301798e-07
-1.901457407e-07
1.685309066e-07
-1.944927294e-07
1.744115505e-07
-1.995044559e-07
1.801276509e-07
-2.063472703e-07
1.853234629e-07
-2.042138865e-07
1.949813897e-07
-2.889518017e-07
1.406463913e-07
3.560092776e-07
4.701345562e-06
1.536845698e-10
-3.678641488e-09
6.15091602e-10
-1.103934023e-08
1.387220034e-09
-1.841823868e-08
2.475230095e-09
-2.582833816e-08
3.886143849e-09
-3.327984898e-08
5.628550182e-09
-4.078014727e-08
7.712237881e-09
-4.833304147e-08
1.014775666e-08
-5.593814694e-08
1.294590579e-08
-6.359034211e-08
1.611715735e-08
-7.127932385e-08
1.967099687e-08
-7.898930638e-08
2.361525367e-08
-8.669891796e-08
2.795535598e-08
-9.438117336e-08
3.26935705e-08
-1.020037451e-07
3.782823973e-08
-1.09529451e-07
4.335304054e-08
-1.169170022e-07
4.92563029e-08
-1.241220312e-07
5.552040043e-08
-1.310983689e-07
6.212121353e-08
-1.377996822e-07
6.902782693e-08