/*--------------------------------*- C++ -*----------------------------------*\
| =========                 |                                                 |
| \\      /  F ield         | OpenFOAM: The Open Source CFD Toolbox           |
|  \\    /   O peration     | Version:  v1912                                 |
|   \\  /    A nd           | Website:  www.openfoam.com                      |
|    \\/     M anipulation  |                                                 |
\*---------------------------------------------------------------------------*/
FoamFile
{
    version     2.0;
    format      ascii;
    class       surfaceScalarField;
    location    "0.6";
    object      phi.gas;
}
// * * * * * * * * * * * * * * * * * * * * * * * * * * * * * * * * * * * * * //

dimensions      [0 3 -1 0 0 0 0];
oriented        oriented;


internalField   nonuniform List<scalar> 
9440
(
1.536415847e-10
7.406231623e-09
6.193427699e-10
2.221397238e-08
1.396725634e-09
3.702211199e-08
2.485257198e-09
5.183074753e-08
3.884373592e-09
6.663993933e-08
5.593313179e-09
8.144987043e-08
7.61108516e-09
9.626076502e-08
9.936405859e-09
1.110729103e-07
1.256764457e-08
1.258866485e-07
1.550277071e-08
1.407023744e-07
1.873930587e-08
1.555205303e-07
2.227428691e-08
1.703415964e-07
2.610424605e-08
1.851660731e-07
3.022521234e-08
1.999944596e-07
3.463273965e-08
2.14827228e-07
3.932196683e-08
2.296647905e-07
4.428771531e-08
2.445074629e-07
4.952462986e-08
2.593554208e-07
5.502736782e-08
2.742086515e-07
6.079084253e-08
2.890669002e-07
6.681052718e-08
3.03929609e-07
7.3082826e-08
3.187958501e-07
7.960552167e-08
3.336642494e-07
8.637831073e-08
3.485328989e-07
9.340344738e-08
3.633992481e-07
1.006865316e-07
3.782599597e-07
1.082374942e-07
3.931107034e-07
1.160718596e-07
4.07945912e-07
1.242124794e-07
4.227582813e-07
1.32692026e-07
4.375379954e-07
1.415567876e-07
4.522714694e-07
1.508728013e-07
4.669389909e-07
1.607376008e-07
4.815091637e-07
1.712948434e-07
4.959356164e-07
1.828402927e-07
5.100688419e-07
1.952882385e-07
5.242683693e-07
2.123166734e-07
5.34916281e-07
2.101132349e-07
5.687548364e-07
3.596950561e-07
4.106325713e-07
9.484782376e-07
1.617638511e-10
6.729120943e-09
6.473723736e-10
2.018240337e-08
1.457402369e-09
3.363550078e-08
2.591625787e-09
4.708928673e-08
4.049702067e-09
6.054396045e-08
5.83114177e-09
7.39998423e-08
7.935271311e-09
8.745733794e-08
1.036116583e-08
1.009169818e-07
1.310760922e-08
1.143794042e-07
1.617303148e-08
1.278453513e-07
1.955545529e-08
1.413156687e-07
2.325245868e-08
1.547912785e-07
2.726115231e-08
1.682731455e-07
3.157817835e-08
1.817622354e-07
3.61997366e-08
1.952594601e-07
4.112164356e-08
2.087656141e-07
4.633943009e-08
2.222812975e-07
5.184848349e-08
2.358068292e-07
5.764423976e-08
2.493421483e-07
6.372243196e-08
2.628867036e-07
7.007940093e-08
2.764393315e-07
7.671247656e-08
2.899981177e-07
8.362043739e-08
3.035602432e-07
9.080405729e-08
3.171218091e-07
9.826676767e-08
3.306776125e-07
1.060154484e-07
3.442208716e-07
1.140613937e-07
3.57742848e-07
1.224216324e-07
3.712322608e-07
1.311205727e-07
3.846744361e-07
1.401922519e-07
3.980499357e-07
1.496837625e-07
4.113321433e-07
1.596604859e-07
4.244830839e-07
1.702143855e-07
4.374448191e-07
1.814741919e-07
4.501341793e-07
1.936521007e-07
4.623199525e-07
2.068360819e-07
4.744738026e-07
2.24936831e-07
4.79219675e-07
2.294575582e-07
5.248217114e-07
2.826645426e-07
3.038321998e-07
1.221739915e-06
1.620518982e-10
6.597769289e-09
6.482966964e-10
1.978838719e-08
1.458967009e-09
3.297856161e-08
2.593994551e-09
4.616946538e-08
4.053128219e-09
5.936150404e-08
5.835947687e-09
7.255515526e-08
7.94183464e-09
8.57510201e-08
1.036993409e-08
9.894986676e-08
1.311908235e-08
1.121526311e-07
1.618775315e-08
1.253604188e-07
1.957400558e-08
1.38574487e-07
2.327544187e-08
1.517962115e-07
2.728918116e-08
1.65027038e-07
3.16118546e-08
1.782684176e-07
3.623962784e-08
1.915217263e-07
4.116825616e-08
2.047881671e-07
4.639317856e-08
2.180686558e-07
5.190965611e-08
2.313636888e-07
5.771296046e-08
2.44673195e-07
6.379861791e-08
2.579963696e-07
7.016271546e-08
2.713314899e-07
7.680227463e-08
2.846757093e-07
8.371570093e-08
2.980248285e-07
9.090331486e-08
3.113730375e-07
9.836798431e-08
3.247125913e-07
1.061158711e-07
3.380334192e-07
1.141573129e-07
3.513226075e-07
1.225079533e-07
3.64563592e-07
1.311901255e-07
3.77735023e-07
1.402345738e-07
3.908090512e-07
1.496827675e-07
4.03748359e-07
1.595899804e-07
4.165011917e-07
1.700293186e-07
4.289918128e-07
1.810980315e-07
4.411129084e-07
1.929331768e-07
4.525942163e-07
2.055594589e-07
4.640144484e-07
2.206072011e-07
4.664175979e-07
2.278909785e-07
5.17751011e-07
2.393160364e-07
2.778398986e-07
1.495878781e-06
1.62157948e-10
6.433952388e-09
6.487251934e-10
1.929701409e-08
1.459743847e-09
3.215954435e-08
2.595179465e-09
4.502281395e-08
4.054854501e-09
5.788739261e-08
5.838421317e-09
7.07539158e-08
7.945335873e-09
8.362317815e-08
1.037480815e-08
9.649619034e-08
1.312573698e-08
1.09374196e-07
1.619664867e-08
1.222586704e-07
1.958563968e-08
1.351512972e-07
2.329032889e-08
1.480539265e-07
2.730782583e-08
1.609685107e-07
3.163471941e-08
1.738970192e-07
3.626709392e-08
1.868413304e-07
4.120057794e-08
1.998031016e-07
4.643043186e-08
2.127836156e-07
5.195167973e-08
2.257836047e-07
5.77592909e-08
2.388030525e-07
6.384841703e-08
2.518409726e-07
7.021468899e-08
2.648951645e-07
7.685457872e-08
2.779619428e-07
8.376583258e-08
2.910358363e-07
9.094797922e-08
3.041092572e-07
9.84029154e-08
3.171720969e-07
1.06135586e-07
3.302112421e-07
1.141547604e-07
3.432099552e-07
1.224738961e-07
3.561469985e-07
1.311121775e-07
3.689953138e-07
1.400956049e-07
3.817202378e-07
1.494580106e-07
3.942766347e-07
1.592417974e-07
4.066042003e-07
1.694974304e-07
4.186191569e-07
1.802808384e-07
4.302087528e-07
1.916389406e-07
4.411117726e-07
2.035466859e-07
4.519787694e-07
2.158802783e-07
4.539552873e-07
2.247414725e-07
5.062019003e-07
2.205164283e-07
2.638083666e-07
1.751540811e-06
1.622504883e-10
6.271963826e-09
6.490936083e-10
1.881117031e-08
1.460483536e-09
3.134982464e-08
2.59640803e-09
4.388920863e-08
4.056759904e-09
5.64300057e-08
5.841277264e-09
6.897299351e-08
7.949507934e-09
8.15191541e-08
1.038075111e-08
9.406974325e-08
1.313398945e-08
1.066263176e-07
1.620782092e-08
1.191907343e-07
1.960039394e-08
1.317651232e-07
2.33093521e-08
1.443518357e-07
2.733179417e-08
1.569533665e-07
3.166425435e-08
1.695722471e-07
3.630270961e-08
1.822109111e-07
4.124261965e-08
1.948715313e-07
4.647900571e-08
2.075558279e-07
5.200657344e-08
2.202648481e-07
5.781988566e-08
2.329987182e-07
6.391358935e-08
2.457563684e-07
7.028270087e-08
2.585352299e-07
7.692295316e-08
2.713309028e-07
8.383120843e-08
2.841367894e-07
9.100593648e-08
2.969436982e-07
9.84477491e-08
3.097393831e-07
1.06160001e-07
3.225079933e-07
1.141494392e-07
3.352294051e-07
1.224268426e-07
3.478783472e-07
1.310076342e-07
3.604231425e-07
1.39912388e-07
3.728239907e-07
1.491667921e-07
3.850306371e-07
1.588004658e-07
3.969788692e-07
1.688431812e-07
4.085847697e-07
1.793170089e-07
4.197433642e-07
1.902027719e-07
4.302342114e-07
2.015044295e-07
4.406876184e-07
2.122199038e-07
4.432444645e-07
2.20074712e-07
4.938544694e-07
2.067098508e-07
2.578297832e-07
1.997121018e-06
1.623289475e-10
6.109771637e-09
6.494169923e-10
1.832474882e-08
1.461179326e-09
3.05391716e-08
2.597639662e-09
4.275428098e-08
4.05876856e-09
5.497082989e-08
5.844405145e-09
6.71897147e-08
7.954209313e-09
7.941209374e-08
1.038759373e-08
9.163946649e-08
1.314364866e-08
1.038737083e-07
1.622106526e-08
1.161170724e-07
1.961806139e-08
1.28372159e-07
2.333231613e-08
1.406418544e-07
2.736091954e-08
1.529292398e-07
3.170034186e-08
1.652374639e-07
3.634642972e-08
1.775695817e-07
4.129443506e-08
1.89928359e-07
4.653908254e-08
2.023160419e-07
5.20746816e-08
2.147340921e-07
5.789528783e-08
2.271828894e-07
6.399491801e-08
2.396614033e-07
7.036782249e-08
2.521668327e-07
7.700881551e-08
2.646942155e-07
8.391366442e-08
2.772360031e-07
9.107954081e-08
2.897816043e-07
9.850550218e-08
3.02316891e-07
1.061930155e-07
3.148236081e-07
1.141464823e-07
3.272787036e-07
1.223737149e-07
3.39653501e-07
1.308862043e-07
3.519126461e-07
1.396991279e-07
3.640126776e-07
1.488307456e-07
3.759002696e-07
1.583004192e-07
3.875101034e-07
1.681241311e-07
3.987616529e-07
1.783044919e-07
4.095634163e-07
1.887894474e-07
4.197488825e-07
1.996211926e-07
4.298588016e-07
2.094248422e-07
4.334297175e-07
2.159100359e-07
4.804940597e-07
1.940583225e-07
2.607546893e-07
2.233418606e-06
1.623953101e-10
5.947510553e-09
6.497006346e-10
1.783814521e-08
1.461821234e-09
2.972821261e-08
2.59883654e-09
4.161887042e-08
4.060810177e-09
5.351090126e-08
5.847701483e-09
6.540529289e-08
7.95930574e-09
7.730336468e-08
1.039517545e-08
8.920685534e-08
1.315453508e-08
1.011179644e-07
1.623619386e-08
1.130393574e-07
1.963845997e-08
1.249741324e-07
2.335906254e-08
1.36925751e-07
2.739508864e-08
1.488979338e-07
3.174293926e-08
1.608945128e-07
3.639831175e-08
1.729192445e-07
4.135621514e-08
1.849755808e-07
4.661102432e-08
1.970664007e-07
5.215657863e-08
2.091937002e-07
5.79863304e-08
2.213582461e-07
6.409354695e-08
2.335591928e-07
7.047156845e-08
2.457936674e-07
7.711412227e-08
2.580563224e-07
8.401568932e-08
2.703388578e-07
9.117193024e-08
2.826295062e-07
9.858012568e-08
2.949125241e-07
1.062396342e-07
3.071675836e-07
1.141523231e-07
3.193691294e-07
1.223229044e-07
3.314856476e-07
1.307590657e-07
3.434788144e-07
1.394711563e-07
3.553025062e-07
1.48471332e-07
3.669016174e-07
1.577719321e-07
3.782106585e-07
1.673812039e-07
3.891531731e-07
1.772974176e-07
3.996477402e-07
1.874726834e-07
4.095730979e-07
1.979949877e-07
4.193406155e-07
2.073529952e-07
4.240533867e-07
2.1719e-07
4.647361601e-07
1.858378799e-07
2.7038964e-07
2.461722512e-06
1.624482139e-10
5.785187287e-09
6.499373346e-10
1.735137269e-08
1.462383236e-09
2.891694687e-08
2.599942061e-09
4.048294112e-08
4.062790935e-09
5.205012853e-08
5.851032809e-09
6.36195579e-08
7.964625384e-09
7.519269076e-08
1.040329068e-08
8.677149794e-08
1.316641779e-08
9.835850812e-08
1.625296289e-08
1.099568163e-07
1.966134971e-08
1.215700501e-07
2.338937658e-08
1.33202293e-07
2.743413818e-08
1.448579658e-07
3.179196565e-08
1.565416616e-07
3.645839294e-08
1.682579313e-07
4.142815605e-08
1.80011023e-07
4.669523146e-08
1.918045732e-07
5.225291966e-08
2.036412528e-07
5.80939791e-08
2.155223699e-07
6.421081416e-08
2.274474332e-07
7.0595719e-08
2.394136807e-07
7.724117701e-08
2.514155771e-07
8.414020974e-08
2.63444287e-07
9.128677593e-08
2.754871073e-07
9.867619803e-08
2.875269376e-07
1.063055658e-07
2.995416864e-07
1.141741141e-07
3.115036591e-07
1.222834819e-07
3.233789442e-07
1.306377575e-07
3.351267754e-07
1.392431842e-07
3.466988818e-07
1.481073779e-07
3.580387782e-07
1.572377499e-07
3.690812086e-07
1.666386345e-07
3.797528011e-07
1.763105199e-07
3.899760553e-07
1.862296365e-07
3.996529416e-07
1.96578522e-07
4.089959328e-07
2.058157518e-07
4.147919103e-07
2.125989069e-07
4.472906414e-07
1.731260168e-07
2.881790302e-07
2.682408184e-06
1.624840572e-10
5.622819891e-09
6.501115368e-10
1.686447963e-08
1.462825909e-09
2.810543612e-08
2.600881493e-09
3.934654665e-08
4.064592988e-09
5.058853303e-08
5.854234511e-09
6.183247126e-08
7.969957399e-09
7.307994251e-08
1.041168713e-08
8.433313986e-08
1.317901238e-08
9.559492503e-08
1.627107006e-08
1.068688411e-07
1.968642989e-08
1.181590799e-07
2.342298424e-08
1.294703988e-07
2.747785158e-08
1.40807989e-07
3.184729848e-08
1.521772926e-07
3.652668705e-08
1.635837623e-07
4.15104557e-08
1.750325674e-07
4.679213954e-08
1.865282458e-07
5.236443694e-08
1.980743038e-07
5.821932743e-08
2.096727674e-07
6.434824521e-08
2.213236904e-07
7.074230986e-08
2.330246259e-07
7.739261319e-08
2.447700679e-07
8.429055763e-08
2.565508729e-07
9.142823038e-08
2.683536541e-07
9.879883833e-08
2.801601986e-07
1.06397082e-07
2.91946925e-07
1.142195152e-07
3.036842911e-07
1.222647833e-07
3.153362998e-07
1.305336772e-07
3.268600461e-07
1.390289257e-07
3.382053272e-07
1.477547141e-07
3.493142077e-07
1.567151548e-07
3.601214955e-07
1.659124801e-07
3.705557169e-07
1.753479426e-07
3.805404754e-07
1.850070257e-07
3.899924992e-07
1.951124715e-07
3.988948079e-07
2.042850466e-07
4.055894613e-07
2.091288036e-07
4.286257337e-07
1.627542593e-07
3.133092337e-07
2.896161366e-06
1.624973702e-10
5.460431424e-09
6.502008e-10
1.637752993e-08
1.463097013e-09
2.729376949e-08
2.601560918e-09
3.820977911e-08
4.06607186e-09
4.91261825e-08
5.857106827e-09
6.004404477e-08
7.975046618e-09
7.096503996e-08
1.042005904e-08
8.189157045e-08
1.31919727e-08
9.282683349e-08
1.629014475e-08
1.037748397e-07
1.971332763e-08
1.147403823e-07
2.345953909e-08
1.257289504e-07
2.752594421e-08
1.367465837e-07
3.190875697e-08
1.477996723e-07
3.660316597e-08
1.588946916e-07
4.160329389e-08
1.700378741e-07
4.690219771e-08
1.81234821e-07
5.249191615e-08
1.924900553e-07
5.836357052e-08
2.038065191e-07
6.450752325e-08
2.151850246e-07
7.091359668e-08
2.266236656e-07
7.757135045e-08
2.381171998e-07
8.447041413e-08
2.496564161e-07
9.160085375e-08
2.612274947e-07
9.895360703e-08
2.728113522e-07
1.06520886e-07
2.843831424e-07
1.142965203e-07
2.959117093e-07
1.222762377e-07
3.073591637e-07
1.304578014e-07
3.186805714e-07
1.388409853e-07
3.298237251e-07
1.474270747e-07
3.40729183e-07
1.562178246e-07
3.513312864e-07
1.652145883e-07
3.615589352e-07
1.744187174e-07
3.71335863e-07
1.838106755e-07
3.805986762e-07
1.93599626e-07
3.891099273e-07
2.023719613e-07
3.967824492e-07
2.041363708e-07
4.099210801e-07
1.532907437e-07
3.434894715e-07
3.103641872e-06
1.62481e-10
5.298052144e-09
6.50176337e-10
1.589060921e-08
1.463131615e-09
2.648207235e-08
2.601865948e-09
3.707278005e-08
4.06705374e-09
4.766320447e-08
5.859410637e-09
5.825435586e-08
7.979587781e-09
6.884796967e-08
1.042803981e-08
7.944664096e-08
1.320488172e-08
9.005390289e-08
1.630973729e-08
1.006742533e-07
1.974158533e-08
1.113131269e-07
2.349860771e-08
1.219768063e-07
2.757804696e-08
1.326722669e-07
3.1976084e-08
1.434069568e-07
3.668773975e-08
1.54188508e-07
4.17068105e-08
1.650243749e-07
4.702584502e-08
1.759214036e-07
5.263617107e-08
1.86885336e-07
5.852797781e-08
1.979202513e-07
6.469045924e-08
2.090279564e-07
7.11120217e-08
2.202073326e-07
7.778055545e-08
2.314536549e-07
8.468376638e-08
2.427578989e-07
9.180955591e-08
2.541060536e-07
9.914643989e-08
2.654784194e-07
1.066840297e-07
2.768490674e-07
1.14413373e-07
2.881854082e-07
1.223273316e-07
2.99447745e-07
1.304208372e-07
3.105890794e-07
1.386910331e-07
3.215549984e-07
1.471366962e-07
3.322844322e-07
1.557577634e-07
3.427105629e-07
1.645549939e-07
3.527614516e-07
1.735306474e-07
3.623594045e-07
1.826716868e-07
3.71455023e-07
1.921454796e-07
3.796399515e-07
2.004623545e-07
3.884295219e-07
1.990001008e-07
3.923925128e-07
1.453565157e-07
3.764275963e-07
3.305360867e-06
1.624261532e-10
5.135721128e-09
6.500030193e-10
1.540382939e-08
1.462851477e-09
2.567051322e-08
2.601660222e-09
3.593574906e-08
4.067332327e-09
4.619979624e-08
5.86086273e-09
5.646355881e-08
7.983219075e-09
6.672879686e-08
1.043519366e-08
7.699827669e-08
1.321724126e-08
8.727586522e-08
1.63293064e-08
9.756656673e-08
1.977064589e-08
1.078764992e-07
2.353965279e-08
1.182128059e-07
2.76336871e-08
1.285834918e-07
3.204892483e-08
1.389971843e-07
3.678023369e-08
1.494628206e-07
4.182108076e-08
1.599892522e-07
4.716348409e-08
1.705847716e-07
5.27980157e-08
1.81256564e-07
5.871386383e-08
1.920100908e-07
6.489896085e-08
2.028484137e-07
7.134018075e-08
2.137714723e-07
7.802360763e-08
2.247753327e-07
8.49348718e-08
2.358514261e-07
9.205955306e-08
2.46985796e-07
9.938360748e-08
2.581583706e-07
1.068938807e-07
2.693423325e-07
1.145785708e-07
2.805037533e-07
1.224276718e-07
2.916011437e-07
1.304334077e-07
3.025852821e-07
1.385903308e-07
3.133994329e-07
1.468950295e-07
3.239804951e-07
1.553461447e-07
3.342595996e-07
1.639438165e-07
3.441632905e-07
1.726900485e-07
3.536120844e-07
1.815740282e-07
3.625679293e-07
1.907301743e-07
3.704869754e-07
1.987261892e-07
3.803974602e-07
1.945261069e-07
3.754751057e-07
1.380377062e-07
4.121786379e-07
3.50187259e-06
1.623223481e-10
4.973487944e-09
6.49639133e-10
1.491733358e-08
1.462164072e-09
2.485931134e-08
2.600783274e-09
3.479895376e-08
4.066665396e-09
4.473623667e-08
5.86113055e-09
5.467189863e-08
7.985514906e-09
6.46076798e-08
1.044100625e-08
7.45464918e-08
1.322846036e-08
8.449252934e-08
1.634820495e-08
9.445132077e-08
1.979983601e-08
1.044297116e-07
2.358201427e-08
1.14435776e-07
2.769226669e-08
1.244786495e-07
3.212680317e-08
1.345682724e-07
3.688036192e-08
1.447150488e-07
4.194608722e-08
1.549294209e-07
4.731545177e-08
1.652213494e-07
5.297823373e-08
1.755997113e-07
5.892255671e-08
1.860716205e-07
6.51350011e-08
1.966416804e-07
7.16007922e-08
2.073111858e-07
7.830406786e-08
2.180772909e-07
8.522822611e-08
2.28932169e-07
9.235635304e-08
2.398621788e-07
9.96716883e-08
2.508471025e-07
1.071581261e-07
2.618594627e-07
1.148009087e-07
2.728640028e-07
1.225871072e-07
2.838174075e-07
1.305061571e-07
2.946680978e-07
1.385499335e-07
3.053569047e-07
1.467132326e-07
3.158178108e-07
1.5499384e-07
3.259789595e-07
1.63391563e-07
3.35764852e-07
1.719081972e-07
3.450940978e-07
1.805336181e-07
3.539390295e-07
1.893743284e-07
3.616485703e-07
1.971135638e-07
3.726201277e-07
1.903297497e-07
3.590747319e-07
1.313398862e-07
4.504234981e-07
3.693578204e-06
1.621573116e-10
4.811414462e-09
6.490359059e-10
1.443130135e-08
1.460961458e-09
2.404874505e-08
2.599047986e-09
3.366274084e-08
4.064770984e-09
4.32728996e-08
5.859826158e-09
5.287972571e-08
7.985977853e-09
6.24848863e-08
1.044487427e-08
7.209140646e-08
1.323784213e-08
8.170379786e-08
1.63656644e-08
9.132812847e-08
1.982834783e-08
1.009720158e-07
2.362488776e-08
1.106445404e-07
2.77530384e-08
1.203560751e-07
3.220909426e-08
1.301180162e-07
3.698769834e-08
1.399424141e-07
4.208168843e-08
1.49841512e-07
4.748198629e-08
1.59827183e-07
5.317754514e-08
1.699102695e-07
5.915536508e-08
1.800998359e-07
6.540058616e-08
1.904023444e-07
7.189666681e-08
2.008207708e-07
7.862565293e-08
2.113536828e-07
8.556854296e-08
2.219943031e-07
9.270574444e-08
2.32729585e-07
1.000175604e-07
2.435394212e-07
1.074847822e-07
2.543958519e-07
1.150894821e-07
2.652623376e-07
1.228156629e-07
2.760936552e-07
1.306496979e-07
2.868358578e-07
1.385809886e-07
2.974267553e-07
1.466026172e-07
3.07796655e-07
1.547115561e-07
3.178698131e-07
1.62908296e-07
3.275671874e-07
1.711962112e-07
3.36804575e-07
1.795695307e-07
3.455620965e-07
1.881107284e-07
3.531087378e-07
1.956435405e-07
3.650477573e-07
1.865491432e-07
3.429732703e-07
1.25117536e-07
4.910978683e-07
3.880814771e-06
1.61916831e-10
4.64957679e-09
6.481368813e-10
1.394595444e-08
1.459118755e-09
2.323916107e-08
2.59623793e-09
3.252754847e-08
4.061322518e-09
4.181026898e-08
5.856500006e-09
5.108751329e-08
7.984029809e-09
6.036081335e-08
1.044609387e-08
6.963326668e-08
1.324456948e-08
7.890968681e-08
1.638077732e-08
8.819669345e-08
1.985521771e-08
9.750271994e-08
2.366730047e-08
1.068379325e-07
2.781507914e-08
1.162140548e-07
3.229499507e-08
1.256440917e-07
3.710164413e-08
1.351419348e-07
4.222758457e-08
1.447218585e-07
4.766319138e-08
1.543979157e-07
5.339656977e-08
1.64183215e-07
5.941354256e-08
1.740891003e-07
6.569772238e-08
1.841242423e-07
7.223067927e-08
1.942936586e-07
7.89922144e-08
2.045976865e-07
8.596074447e-08
2.150309356e-07
9.31137725e-08
2.255812764e-07
1.004284317e-07
2.362289767e-07
1.078822163e-07
2.469457273e-07
1.154537146e-07
2.576938854e-07
1.231235479e-07
2.684262221e-07
1.308749957e-07
2.790861383e-07
1.386949313e-07
2.896078575e-07
1.465745768e-07
2.999173454e-07
1.545100692e-07
3.099339489e-07
1.6250296e-07
3.195731857e-07
1.705601322e-07
3.287455728e-07
1.786862844e-07
3.374323958e-07
1.869648169e-07
3.448310017e-07
1.943980871e-07
3.575730122e-07
1.832999316e-07
3.270202687e-07
1.192027279e-07
5.343767867e-07
4.063806221e-06
1.61584572e-10
4.488067414e-09
6.468771826e-10
1.346156308e-08
1.456492437e-09
2.243098468e-08
2.59210424e-09
3.139392007e-08
4.055943901e-09
4.034895589e-08
5.850633923e-09
4.929587722e-08
7.979001811e-09
5.823600783e-08
1.044384788e-08
6.717246673e-08
1.324768896e-08
7.611034867e-08
1.639247788e-08
8.5056832e-08
1.987930395e-08
9.402120874e-08
2.370808496e-08
1.030148117e-07
2.787725938e-08
1.120508376e-07
3.238349131e-08
1.211440612e-07
3.722139178e-08
1.303104226e-07
4.238327933e-08
1.395664832e-07
4.785899719e-08
1.489287658e-07
5.363578815e-08
1.584129756e-07
5.969824989e-08
1.680330985e-07
6.602838275e-08
1.778004003e-07
7.260574384e-08
1.877223411e-07
7.940772311e-08
1.978014261e-07
8.640994963e-08
2.080340278e-07
9.358675194e-08
2.184093211e-07
1.009118729e-07
2.289081651e-07
1.083591918e-07
2.395021226e-07
1.159035414e-07
2.501526095e-07
1.235217913e-07
2.608103502e-07
1.311939048e-07
2.714156901e-07
1.389038984e-07
2.818988009e-07
1.466409225e-07
2.921805234e-07
1.544002208e-07
3.021741221e-07
1.621839642e-07
3.117881651e-07
1.700024952e-07
3.209250378e-07
1.77871784e-07
3.295598539e-07
1.858903131e-07
3.368124534e-07
1.932430379e-07
3.501715269e-07
1.801449399e-07
3.112347796e-07
1.136000959e-07
5.801078424e-07
4.242819987e-06
1.611418724e-10
4.32699753e-09
6.451826766e-10
1.297845291e-08
1.452918425e-09
2.162473107e-08
2.586362154e-09
3.02625197e-08
4.048204295e-09
3.888971745e-08
5.841632405e-09
4.750559776e-08
7.970123874e-09
5.61111909e-08
1.043719174e-08
6.470957616e-08
1.324609317e-08
7.330609896e-08
1.639952035e-08
8.1908499e-08
1.989926095e-08
9.052696713e-08
2.374584865e-08
9.917408464e-08
2.79382099e-08
1.078646499e-07
3.247332121e-08
1.166153799e-07
3.73458852e-08
1.254444854e-07
4.254803776e-08
1.343710896e-07
4.806911648e-08
1.434145055e-07
5.389549783e-08
1.525933961e-07
6.001051294e-08
1.619247889e-07
6.639446763e-08
1.714229726e-07
7.3024781e-08
1.810982928e-07
7.987625647e-08
1.909558709e-07
8.692146871e-08
2.009943105e-07
9.41313279e-08
2.112044549e-07
1.014758593e-07
2.215680538e-07
1.089250214e-07
2.320567451e-07
1.164495497e-07
2.426311853e-07
1.240221376e-07
2.532401305e-07
1.316189932e-07
2.638204402e-07
1.392208877e-07
2.742977432e-07
1.468145074e-07
2.845869724e-07
1.543938307e-07
2.945941162e-07
1.619613864e-07
3.042191767e-07
1.695298677e-07
3.133544099e-07
1.771198133e-07
3.219666015e-07
1.848259151e-07
3.291060652e-07
1.919576222e-07
3.429780603e-07
1.766341963e-07
2.959544511e-07
1.083194081e-07
6.276073128e-07
4.418105487e-06
1.60567514e-10
4.166499624e-09
6.429690518e-10
1.249701262e-08
1.448209994e-09
2.082101776e-08
2.578687245e-09
2.913414908e-08
4.037612028e-09
3.743347797e-08
5.828814304e-09
4.571764461e-08
7.956513415e-09
5.398728617e-08
1.042503798e-08
6.224536896e-08
1.323850149e-08
7.049744653e-08
1.640045558e-08
7.875181817e-08
1.991351134e-08
8.701960868e-08
2.377894285e-08
9.531473042e-08
2.799628438e-08
1.036537153e-07
3.2562933e-08
1.120554103e-07
3.747377543e-08
1.205405301e-07
4.272083831e-08
1.29131054e-07
4.829299589e-08
1.378494406e-07
5.41757645e-08
1.467177042e-07
6.035117531e-08
1.557563543e-07
6.679776004e-08
1.64983176e-07
7.349066782e-08
1.744118962e-07
8.040192134e-08
1.84050763e-07
8.750079937e-08
1.939011259e-07
9.475450293e-08
2.039559104e-07
1.021289242e-07
2.141981813e-07
1.09589654e-07
2.245998861e-07
1.171030314e-07
2.351209457e-07
1.246371685e-07
2.457083634e-07
1.321638244e-07
2.562953334e-07
1.396600468e-07
2.668022556e-07
1.471095267e-07
2.771374223e-07
1.545043743e-07
2.871984268e-07
1.618468501e-07
2.968751168e-07
1.69151082e-07
3.06047928e-07
1.764406636e-07
3.146736604e-07
1.837995134e-07
3.217464952e-07
1.905776104e-07
3.361093225e-07
1.727893214e-07
2.814519485e-07
1.03199364e-07
6.764319183e-07
4.589750921e-06
1.598374714e-10
4.006730283e-09
6.401408188e-10
1.201770229e-08
1.442155503e-09
2.002057839e-08
2.568711361e-09
2.800976635e-08
4.023608248e-09
3.598135243e-08
5.811403951e-09
4.393320429e-08
7.937161559e-09
5.186545008e-08
1.040614006e-08
5.978085601e-08
1.322343921e-08
6.768512849e-08
1.639360536e-08
7.558711704e-08
1.99202152e-08
8.349890917e-08
2.380542601e-08
9.143583024e-08
2.80495184e-08
9.941628205e-08
3.265044055e-08
1.074614369e-07
3.760337206e-08
1.155947687e-07
4.290032066e-08
1.238414249e-07
4.852976099e-08
1.322273923e-07
5.447636696e-08
1.407784763e-07
6.072084554e-08
1.495191497e-07
6.723987726e-08
1.584712211e-07
7.40062013e-08
1.676523568e-07
8.098884372e-08
1.770745179e-07
8.815356604e-08
1.867423205e-07
9.54635141e-08
1.966513102e-07
1.02880048e-07
2.067863444e-07
1.103638203e-07
2.171200871e-07
1.178761835e-07
2.276117715e-07
1.253804335e-07
2.38206481e-07
1.328431433e-07
2.488341309e-07
1.402369103e-07
2.594091168e-07
1.47541817e-07
2.698322954e-07
1.547473931e-07
2.799918323e-07
1.618547258e-07
2.89766035e-07
1.688781293e-07
2.990221881e-07
1.758422669e-07
3.077061559e-07
1.828279629e-07
3.147599162e-07
1.891937776e-07
3.296023191e-07
1.689850539e-07
2.677159187e-07
9.819246565e-08
7.265665137e-07
4.757805437e-06
1.589246435e-10
3.847873296e-09
6.365902272e-10
1.15410626e-08
1.434515946e-09
1.922427779e-08
2.556018243e-09
2.689050688e-08
4.005559977e-09
3.453467246e-08
5.788520761e-09
4.215371093e-08
7.910919643e-09
4.974710716e-08
1.03790746e-08
5.731732389e-08
1.319921463e-08
6.487015197e-08
1.637703439e-08
7.241496711e-08
1.991723654e-08
7.996484552e-08
2.382302474e-08
8.753660335e-08
2.809558621e-08
9.51506514e-08
3.273357118e-08
1.028306912e-07
3.773258611e-08
1.106032315e-07
4.308472885e-08
1.184969207e-07
4.877815592e-08
1.265416827e-07
5.479673649e-08
1.347676035e-07
6.111983829e-08
1.432036492e-07
6.772221753e-08
1.518762372e-07
7.457405962e-08
1.608076025e-07
8.164119997e-08
1.700140555e-07
8.888558473e-08
1.795041037e-07
9.626592858e-08
1.892765283e-07
1.037386235e-07
1.993185167e-07
1.112589027e-07
2.096039016e-07
1.187823193e-07
2.200916093e-07
1.262666182e-07
2.30724549e-07
1.33673056e-07
2.414291575e-07
1.409685995e-07
2.521140915e-07
1.481290398e-07
2.626714705e-07
1.551405876e-07
2.729790623e-07
1.620024012e-07
2.829022679e-07
1.687282578e-07
2.922938929e-07
1.75343731e-07
3.010873279e-07
1.819265036e-07
3.081761287e-07
1.878076187e-07
3.234944065e-07
1.652926491e-07
2.546702372e-07
9.328123385e-08
7.780773665e-07
4.922305725e-06
1.577985668e-10
3.690143027e-09
6.321961195e-10
1.106772483e-08
1.425022367e-09
1.843312853e-08
2.540138858e-09
2.577770606e-08
3.982752748e-09
3.309501511e-08
5.759168573e-09
4.03808803e-08
7.876484938e-09
4.763398858e-08
1.034222173e-08
5.485637669e-08
1.316389361e-08
6.205383653e-08
1.63485194e-08
6.923622929e-08
1.990210639e-08
7.641764085e-08
2.382909043e-08
8.361644929e-08
2.813174945e-08
9.085521524e-08
3.280961117e-08
9.816038192e-08
3.785887107e-08
1.055617819e-07
4.327184467e-08
1.130919318e-07
4.903647359e-08
1.207851262e-07
5.513588662e-08
1.286762585e-07
6.15481064e-08
1.3679939e-07
6.824589979e-08
1.451861906e-07
7.519676244e-08
1.538641637e-07
8.236312784e-08
1.628546814e-07
8.970280799e-08
1.721708737e-07
9.716967781e-08
1.818154635e-07
1.047146503e-07
1.917786075e-07
1.122869547e-07
2.020358326e-07
1.198357267e-07
2.125461733e-07
1.273120192e-07
2.232506399e-07
1.346711618e-07
2.340714228e-07
1.418740354e-07
2.449116482e-07
1.488908829e-07
2.556540608e-07
1.557038511e-07
2.66164639e-07
1.623094431e-07
2.762944589e-07
1.687210192e-07
2.858796932e-07
1.749665725e-07
2.948384475e-07
1.811190553e-07
3.020224966e-07
1.86421993e-07
3.178282321e-07
1.616298871e-07
2.423467611e-07
8.843995642e-08
8.309765723e-07
5.083267584e-06
1.564251212e-10
3.53378809e-09
6.268227485e-10
1.059842185e-08
1.413373152e-09
1.7648309e-08
2.520546524e-09
2.467292427e-08
3.954382851e-09
3.166423441e-08
5.72222428e-09
3.861674758e-08
7.832384683e-09
4.552817517e-08
1.029374314e-08
5.239998387e-08
1.31152744e-08
5.923786447e-08
1.630551652e-08
6.605210685e-08
1.987198282e-08
7.285781675e-08
2.382055202e-08
7.967499738e-08
2.815480324e-08
8.652850019e-08
3.287534531e-08
9.344772946e-08
3.797915014e-08
1.004661454e-07
4.345891315e-08
1.076205302e-07
4.930248351e-08
1.149500157e-07
5.549233457e-08
1.224948677e-07
6.200516357e-08
1.302949162e-07
6.881169162e-08
1.383877971e-07
7.58765971e-08
1.468070552e-07
8.315868379e-08
1.555799358e-07
9.061129614e-08
1.647250292e-07
9.818302457e-08
1.742498163e-07
1.058187394e-07
1.841481817e-07
1.134609795e-07
1.943979951e-07
1.210517081e-07
2.049588816e-07
1.28534448e-07
2.157703134e-07
1.358570021e-07
2.267502242e-07
1.429741472e-07
2.377948251e-07
1.498492581e-07
2.487782176e-07
1.564595336e-07
2.595526566e-07
1.627977943e-07
2.699536696e-07
1.68876083e-07
2.797984893e-07
1.74732966e-07
2.88978156e-07
1.804277887e-07
2.963261271e-07
1.850410373e-07
3.126470173e-07
1.579400612e-07
2.307085513e-07
8.365180729e-08
8.852407482e-07
5.240697676e-06
1.54766226e-10
3.379095327e-09
6.20318537e-10
1.013399989e-08
1.399231203e-09
1.687118299e-08
2.496651791e-09
2.357797416e-08
3.91954918e-09
3.024449593e-08
5.676425834e-09
3.686370882e-08
7.77695929e-09
4.34321453e-08
1.023156031e-08
4.995053387e-08
1.305085893e-08
5.642434007e-08
1.624512554e-08
6.286420687e-08
1.982360792e-08
6.928625301e-08
2.379386476e-08
7.571216448e-08
2.81610166e-08
8.21692201e-08
3.292698781e-08
8.869001026e-08
3.808974608e-08
9.53119416e-08
4.364256458e-08
1.020764808e-07
4.957334307e-08
1.090281191e-07
5.586401073e-08
1.1621309e-07
6.248999581e-08
1.236777191e-07
6.941992631e-08
1.314664295e-07
7.661554226e-08
1.396196507e-07
8.403178486e-08
1.481714255e-07
9.161718095e-08
1.571467589e-07
9.931455659e-08
1.665588364e-07
1.07062121e-07
1.764061668e-07
1.147949571e-07
1.866697582e-07
1.224469476e-07
1.973104522e-07
1.299531452e-07
2.082665747e-07
1.372526075e-07
2.194520815e-07
1.442920852e-07
2.307555332e-07
1.510285093e-07
2.420409045e-07
1.57432417e-07
2.531467905e-07
1.634926571e-07
2.638905917e-07
1.692183773e-07
2.740692316e-07
1.746555523e-07
2.835368845e-07
1.798694182e-07
2.911106561e-07
1.837297511e-07
3.079283983e-07
1.541972245e-07
2.223898628e-07
7.894592104e-08
9.40745287e-07
5.394641174e-06
1.527795106e-10
3.226394113e-09
6.125147777e-10
9.675431416e-09
1.382220989e-09
1.610332101e-08
2.467797109e-09
2.249495026e-08
3.877244694e-09
2.883831462e-08
5.620359637e-09
3.512456652e-08
7.708344889e-09
4.134882754e-08
1.015333207e-08