/*--------------------------------*- C++ -*----------------------------------*\
| =========                 |                                                 |
| \\      /  F ield         | OpenFOAM: The Open Source CFD Toolbox           |
|  \\    /   O peration     | Version:  v1912                                 |
|   \\  /    A nd           | Website:  www.openfoam.com                      |
|    \\/     M anipulation  |                                                 |
\*---------------------------------------------------------------------------*/
FoamFile
{
    version     2.0;
    format      ascii;
    class       volScalarField;
    location    "0.6";
    object      T.gas;
}
// * * * * * * * * * * * * * * * * * * * * * * * * * * * * * * * * * * * * * //

dimensions      [0 0 0 1 0 0 0];


internalField   nonuniform List<scalar> 
4800
(
111.5398417
111.5398417
111.5398417
111.5398417
111.5398417
111.5398417
111.5398417
111.5398417
111.5398417
111.5398417
111.5398416
111.5398416
111.5398416
111.5398416
111.5398416
111.5398416
111.5398415
111.5398415
111.5398415
111.5398415
111.5398415
111.5398414
111.5398414
111.5398414
111.5398414
111.5398413
111.5398413
111.5398413
111.5398413
111.5398412
111.5398411
111.5398419
111.5398352
111.5398823
111.5396114
111.5408338
111.5366516
111.5469687
111.533582
111.5380104
111.5398308
111.5398307
111.5398307
111.5398307
111.5398307
111.5398307
111.5398307
111.5398307
111.5398307
111.5398307
111.5398306
111.5398306
111.5398306
111.5398306
111.5398305
111.5398305
111.5398305
111.5398305
111.5398304
111.5398304
111.5398303
111.5398303
111.5398303
111.5398302
111.5398302
111.5398301
111.5398301
111.53983
111.53983
111.5398299
111.5398298
111.5398302
111.5398259
111.5398558
111.5396829
111.5404681
111.5377443
111.5445773
111.53789
111.5380078
111.5398198
111.5398198
111.5398198
111.5398198
111.5398198
111.5398197
111.5398197
111.5398197
111.5398197
111.5398197
111.5398196
111.5398196
111.5398196
111.5398195
111.5398195
111.5398195
111.5398194
111.5398194
111.5398193
111.5398193
111.5398192
111.5398192
111.5398191
111.5398191
111.539819
111.5398189
111.5398189
111.5398188
111.5398187
111.5398186
111.5398185
111.5398187
111.5398159
111.5398349
111.5397197
111.5402686
111.5382432
111.5437648
111.5379717
111.5380092
111.5398088
111.5398088
111.5398088
111.5398088
111.5398088
111.5398088
111.5398087
111.5398087
111.5398087
111.5398087
111.5398086
111.5398086
111.5398086
111.5398085
111.5398085
111.5398084
111.5398084
111.5398083
111.5398082
111.5398082
111.5398081
111.5398081
111.539808
111.5398079
111.5398078
111.5398077
111.5398076
111.5398075
111.5398074
111.5398073
111.5398071
111.5398072
111.5398051
111.5398195
111.5397292
111.5401706
111.5384914
111.5432467
111.5381118
111.5380073
111.5397979
111.5397979
111.5397978
111.5397978
111.5397978
111.5397978
111.5397978
111.5397977
111.5397977
111.5397977
111.5397976
111.5397976
111.5397975
111.5397975
111.5397974
111.5397974
111.5397973
111.5397972
111.5397972
111.5397971
111.539797
111.5397969
111.5397968
111.5397968
111.5397967
111.5397965
111.5397964
111.5397963
111.5397962
111.539796
111.5397958
111.5397958
111.539794
111.539806
111.5397288
111.5401123
111.5386304
111.5428878
111.5380639
111.538007
111.5397869
111.5397869
111.5397869
111.5397869
111.5397868
111.5397868
111.5397868
111.5397868
111.5397867
111.5397867
111.5397866
111.5397866
111.5397865
111.5397865
111.5397864
111.5397863
111.5397863
111.5397862
111.5397861
111.539786
111.5397859
111.5397858
111.5397857
111.5397856
111.5397855
111.5397854
111.5397852
111.5397851
111.5397849
111.5397847
111.5397845
111.5397844
111.5397828
111.5397934
111.5397234
111.5400749
111.5387064
111.5426341
111.5379853
111.5380121
111.5397759
111.5397759
111.5397759
111.5397759
111.5397759
111.5397759
111.5397758
111.5397758
111.5397757
111.5397757
111.5397756
111.5397756
111.5397755
111.5397754
111.5397754
111.5397753
111.5397752
111.5397751
111.539775
111.5397749
111.5397748
111.5397747
111.5397746
111.5397745
111.5397743
111.5397742
111.539774
111.5397739
111.5397737
111.5397735
111.5397732
111.5397731
111.5397716
111.5397812
111.5397163
111.5400462
111.538755
111.5424416
111.5380174
111.5380204
111.539765
111.539765
111.539765
111.539765
111.5397649
111.5397649
111.5397649
111.5397648
111.5397648
111.5397647
111.5397647
111.5397646
111.5397645
111.5397644
111.5397643
111.5397643
111.5397642
111.5397641
111.539764
111.5397638
111.5397637
111.5397636
111.5397635
111.5397633
111.5397632
111.539763
111.5397628
111.5397627
111.5397625
111.5397622
111.539762
111.5397618
111.5397604
111.5397692
111.5397083
111.5400225
111.5387879
111.5422642
111.538004
111.5380247
111.5397541
111.5397541
111.539754
111.539754
111.539754
111.539754
111.5397539
111.5397539
111.5397538
111.5397537
111.5397537
111.5397536
111.5397535
111.5397534
111.5397533
111.5397532
111.5397531
111.539753
111.5397529
111.5397528
111.5397526
111.5397525
111.5397524
111.5397522
111.539752
111.5397519
111.5397517
111.5397515
111.5397512
111.539751
111.5397507
111.5397505
111.5397492
111.5397572
111.5397006
111.5399983
111.5388152
111.5421262
111.5379713
111.5380235
111.5397431
111.5397431
111.5397431
111.5397431
111.5397431
111.539743
111.539743
111.5397429
111.5397428
111.5397428
111.5397427
111.5397426
111.5397425
111.5397424
111.5397423
111.5397422
111.5397421
111.539742
111.5397418
111.5397417
111.5397416
111.5397414
111.5397412
111.5397411
111.5397409
111.5397407
111.5397405
111.5397403
111.5397401
111.5397398
111.5397395
111.5397393
111.5397381
111.5397451
111.5396936
111.53997
111.5388608
111.5419557
111.5379662
111.5380203
111.5397322
111.5397322
111.5397322
111.5397322
111.5397321
111.5397321
111.539732
111.539732
111.5397319
111.5397318
111.5397317
111.5397316
111.5397315
111.5397314
111.5397313
111.5397312
111.5397311
111.5397309
111.5397308
111.5397306
111.5397305
111.5397303
111.5397302
111.53973
111.5397298
111.5397296
111.5397294
111.5397291
111.5397289
111.5397286
111.5397283
111.5397281
111.539727
111.5397331
111.5396865
111.5399418
111.5388996
111.5418301
111.5379703
111.5380188
111.5397213
111.5397213
111.5397213
111.5397212
111.5397212
111.5397211
111.5397211
111.539721
111.539721
111.5397209
111.5397208
111.5397207
111.5397206
111.5397205
111.5397203
111.5397202
111.5397201
111.5397199
111.5397198
111.5397196
111.5397194
111.5397193
111.5397191
111.5397189
111.5397187
111.5397185
111.5397182
111.539718
111.5397177
111.5397175
111.5397171
111.5397169
111.5397159
111.5397212
111.5396796
111.539913
111.5389398
111.5417119
111.5379735
111.5380196
111.5397104
111.5397104
111.5397104
111.5397103
111.5397103
111.5397102
111.5397102
111.5397101
111.53971
111.5397099
111.5397098
111.5397097
111.5397096
111.5397095
111.5397093
111.5397092
111.5397091
111.5397089
111.5397087
111.5397086
111.5397084
111.5397082
111.539708
111.5397078
111.5397076
111.5397073
111.5397071
111.5397069
111.5397066
111.5397063
111.539706
111.5397057
111.5397049
111.5397093
111.5396723
111.5398856
111.5389754
111.5415117
111.5379765
111.538022
111.5396995
111.5396995
111.5396995
111.5396994
111.5396994
111.5396993
111.5396993
111.5396992
111.5396991
111.539699
111.5396989
111.5396988
111.5396987
111.5396985
111.5396984
111.5396982
111.5396981
111.5396979
111.5396977
111.5396975
111.5396973
111.5396971
111.5396969
111.5396967
111.5396965
111.5396962
111.539696
111.5396957
111.5396955
111.5396952
111.5396949
111.5396946
111.5396938
111.5396976
111.5396648
111.5398586
111.5390099
111.5411483
111.5379786
111.5380248
111.5396886
111.5396886
111.5396886
111.5396885
111.5396885
111.5396884
111.5396884
111.5396883
111.5396882
111.5396881
111.539688
111.5396878
111.5396877
111.5396876
111.5396874
111.5396872
111.5396871
111.5396869
111.5396867
111.5396865
111.5396863
111.5396861
111.5396859
111.5396856
111.5396854
111.5396852
111.5396849
111.5396846
111.5396844
111.5396841
111.5396837
111.5396834
111.5396827
111.5396859
111.5396572
111.5398324
111.5390437
111.5406749
111.5379795
111.5380273
111.5396777
111.5396777
111.5396777
111.5396777
111.5396776
111.5396775
111.5396775
111.5396774
111.5396773
111.5396772
111.5396771
111.5396769
111.5396768
111.5396766
111.5396765
111.5396763
111.5396761
111.5396759
111.5396757
111.5396755
111.5396753
111.5396751
111.5396748
111.5396746
111.5396743
111.5396741
111.5396738
111.5396735
111.5396733
111.539673
111.5396726
111.5396723
111.5396717
111.5396743
111.5396492
111.5398072
111.5390761
111.5401681
111.5379787
111.5380296
111.5396669
111.5396669
111.5396668
111.5396668
111.5396667
111.5396667
111.5396666
111.5396665
111.5396664
111.5396663
111.5396661
111.539666
111.5396659
111.5396657
111.5396655
111.5396653
111.5396651
111.5396649
111.5396647
111.5396645
111.5396643
111.539664
111.5396638
111.5396636
111.5396633
111.539663
111.5396628
111.5396625
111.5396622
111.5396619
111.5396616
111.5396612
111.5396607
111.5396628
111.5396409
111.5397829
111.5391067
111.5396834
111.5379773
111.5380318
111.539656
111.539656
111.539656
111.539656
111.5396559
111.5396558
111.5396557
111.5396556
111.5396555
111.5396554
111.5396553
111.5396551
111.5396549
111.5396548
111.5396546
111.5396544
111.5396542
111.539654
111.5396537
111.5396535
111.5396533
111.539653
111.5396528
111.5396525
111.5396523
111.539652
111.5396517
111.5396514
111.5396511
111.5396508
111.5396505
111.5396502
111.5396497
111.5396513
111.5396325
111.5397588
111.5391382
111.5392386
111.5379756
111.5380336
111.5396452
111.5396452
111.5396452
111.5396451
111.5396451
111.539645
111.5396449
111.5396448
111.5396447
111.5396445
111.5396444
111.5396442
111.539644
111.5396439
111.5396437
111.5396435
111.5396432
111.539643
111.5396428
111.5396425
111.5396423
111.539642
111.5396418
111.5396415
111.5396412
111.5396409
111.5396407
111.5396404
111.5396401
111.5396398
111.5396394
111.5396391
111.5396387
111.5396399
111.539624
111.5397354
111.5391685
111.5388415
111.5379735
111.538035
111.5396344
111.5396344
111.5396344
111.5396343
111.5396342
111.5396342
111.5396341
111.5396339
111.5396338
111.5396337
111.5396335
111.5396333
111.5396332
111.539633
111.5396328
111.5396325
111.5396323
111.5396321
111.5396318
111.5396316
111.5396313
111.539631
111.5396308
111.5396305
111.5396302
111.5396299
111.5396296
111.5396293
111.539629
111.5396287
111.5396284
111.5396281
111.5396276
111.5396286
111.5396152
111.5397128
111.5391969
111.5384925
111.5379707
111.5380355
111.5396236
111.5396236
111.5396236
111.5396235
111.5396234
111.5396233
111.5396232
111.5396231
111.539623
111.5396228
111.5396227
111.5396225
111.5396223
111.5396221
111.5396219
111.5396216
111.5396214
111.5396211
111.5396209
111.5396206
111.5396203
111.5396201
111.5396198
111.5396195
111.5396192
111.5396189
111.5396186
111.5396183
111.539618
111.5396177
111.5396174
111.539617
111.5396166
111.5396173
111.5396062
111.5396911
111.539223
111.5381887
111.5379672
111.5380351
111.5396128
111.5396128
111.5396128
111.5396127
111.5396126
111.5396126
111.5396124
111.5396123
111.5396122
111.539612
111.5396118
111.5396116
111.5396114
111.5396112
111.539611
111.5396107
111.5396105
111.5396102
111.5396099
111.5396097
111.5396094
111.5396091
111.5396088
111.5396085
111.5396082
111.5396079
111.5396076
111.5396073
111.539607
111.5396066
111.5396063
111.539606
111.5396057
111.539606
111.539597
111.5396699
111.539248
111.537927
111.537963
111.5380332
111.5396021
111.539602
111.539602
111.539602
111.5396019
111.5396018
111.5396017
111.5396015
111.5396014
111.5396012
111.539601
111.5396008
111.5396006
111.5396004
111.5396001
111.5395999
111.5395996
111.5395993
111.539599
111.5395987
111.5395984
111.5395981
111.5395978
111.5395975
111.5395972
111.5395969
111.5395966
111.5395962
111.5395959
111.5395956
111.5395953
111.539595
111.5395947
111.5395948
111.5395878
111.5396493
111.5392715
111.5377913
111.5379578
111.5380297
111.5395913
111.5395913
111.5395913
111.5395912
111.5395911
111.539591
111.5395909
111.5395908
111.5395906
111.5395904
111.5395902
111.53959
111.5395898
111.5395895
111.5395893
111.539589
111.5395887
111.5395884
111.5395881
111.5395878
111.5395875
111.5395872
111.5395869
111.5395865
111.5395862
111.5395859
111.5395856
111.5395852
111.5395849
111.5395846
111.5395843
111.539584
111.5395837
111.5395836
111.5395784
111.5396291
111.5392954
111.5378447
111.5379511
111.5380246
111.5395806
111.5395806
111.5395805
111.5395805
111.5395804
111.5395803
111.5395802
111.53958
111.5395798
111.5395796
111.5395794
111.5395792
111.539579
111.5395787
111.5395784
111.5395781
111.5395778
111.5395775
111.5395772
111.5395769
111.5395766
111.5395762
111.5395759
111.5395756
111.5395752
111.5395749
111.5395746
111.5395742
111.5395739
111.5395736
111.5395733
111.539573
111.5395727
111.5395725
111.5395688
111.5396095
111.5393184
111.5378343
111.537944
111.5380186
111.5395699
111.5395699
111.5395698
111.5395698
111.5395697
111.5395696
111.5395694
111.5395693
111.5395691
111.5395689
111.5395687
111.5395684
111.5395682
111.5395679
111.5395676
111.5395673
111.539567
111.5395667
111.5395663
111.539566
111.5395657
111.5395653
111.539565
111.5395646
111.5395643
111.5395639
111.5395636
111.5395632
111.5395629
111.5395626
111.5395623
111.539562
111.5395617
111.5395613
111.5395592
111.5395903
111.5393402
111.5378246
111.5379364
111.5380114
111.5395592
111.5395592
111.5395592
111.5395591
111.539559
111.5395589
111.5395587
111.5395586
111.5395584
111.5395582
111.5395579
111.5395577
111.5395574
111.5395571
111.5395568
111.5395565
111.5395562
111.5395558
111.5395555
111.5395551
111.5395547
111.5395544
111.539554
111.5395536
111.5395533
111.5395529
111.5395526
111.5395522
111.5395519
111.5395516
111.5395513
111.539551
111.5395507
111.5395502
111.5395494
111.5395717
111.5393604
111.5378169
111.5379288
111.5380031
111.5395486
111.5395486
111.5395485
111.5395484
111.5395483
111.5395482
111.5395481
111.5395479
111.5395477
111.5395475
111.5395472
111.5395469
111.5395467
111.5395464
111.539546
111.5395457
111.5395453
111.539545
111.5395446
111.5395442
111.5395439
111.5395435
111.5395431
111.5395427
111.5395423
111.539542
111.5395416
111.5395413
111.5395409
111.5395406
111.5395403
111.53954
111.5395398
111.5395391
111.5395396
111.5395537
111.5393791
111.5378087
111.5379217
111.5379938
111.539538
111.5395379
111.5395379
111.5395378
111.5395377
111.5395376
111.5395374
111.5395372
111.539537
111.5395368
111.5395365
111.5395362
111.5395359
111.5395356
111.5395353
111.5395349
111.5395345
111.5395342
111.5395338
111.5395334
111.539533
111.5395326
111.5395322
111.5395318
111.5395314
111.539531
111.5395306
111.5395303
111.5395299
111.5395296
111.5395293
111.539529
111.5395288
111.539528
111.5395296
111.5395361
111.5393963
111.5377991
111.5379151
111.537984
111.5395274
111.5395273
111.5395273
111.5395272
111.5395271
111.5395269
111.5395268
111.5395266
111.5395264
111.5395261
111.5395258
111.5395255
111.5395252
111.5395249
111.5395245
111.5395242
111.5395238
111.5395234
111.5395229
111.5395225
111.5395221
111.5395217
111.5395212
111.5395208
111.5395204
111.53952
111.5395196
111.5395193
111.5395189
111.5395186
111.5395183
111.539518
111.5395178
111.5395169
111.5395196
111.5395188
111.5394127
111.5377881
111.537909
111.5379738
111.5395168
111.5395168
111.5395167
111.5395166
111.5395165
111.5395164
111.5395162
111.539516
111.5395157
111.5395155
111.5395152
111.5395149
111.5395145
111.5395142
111.5395138
111.5395134
111.539513
111.5395126
111.5395121
111.5395117
111.5395112
111.5395108
111.5395103
111.5395099
111.5395095
111.5395091
111.5395087
111.5395083
111.5395079
111.5395076
111.5395073
111.539507
111.5395068
111.5395059
111.5395095
111.5395018
111.539428
111.5377766
111.5379033
111.5379633
111.5395062
111.5395062
111.5395062
111.5395061
111.5395059
111.5395058
111.5395056
111.5395054
111.5395051
111.5395049
111.5395046
111.5395042
111.5395039
111.5395035
111.5395031
111.5395027
111.5395023
111.5395018
111.5395013
111.5395009
111.5395004
111.5394999
111.5394994
111.539499
111.5394985
111.5394981
111.5394977
111.5394973
111.5394969
111.5394966
111.5394963
111.539496
111.5394958
111.5394948
111.5394994
111.539485
111.5394426
111.537765
111.5378974
111.5379522
111.5394957
111.5394957
111.5394956
111.5394955
111.5394954
111.5394952
111.5394951
111.5394948
111.5394946
111.5394943
111.539494
111.5394936
111.5394933
111.5394929
111.5394924
111.539492
111.5394915
111.539491
111.5394906
111.5394901
111.5394896
111.539489
111.5394885
111.5394881
111.5394876
111.5394871
111.5394867
111.5394863
111.5394859
111.5394856
111.5394853
111.539485
111.5394848
111.5394837
111.5394893
111.5394681
111.5394572
111.5378927
111.5378895
111.5379402
111.5394852
111.5394852
111.5394851
111.539485
111.5394849
111.5394847
111.5394845
111.5394843
111.539484
111.5394837
111.5394834
111.539483
111.5394826
111.5394822
111.5394818
111.5394813
111.5394808
111.5394803
111.5394798
111.5394793
111.5394787
111.5394782
111.5394777
111.5394771
111.5394766
111.5394762
111.5394757
111.5394753
111.5394749
111.5394745
111.5394742
111.5394739
111.5394738
111.5394726
111.5394792
111.5394512
111.5394726
111.537884
111.5378845
111.5379285
111.5394748
111.5394748
111.5394747
111.5394746
111.5394744
111.5394743
111.5394741
111.5394738
111.5394735
111.5394732
111.5394729
111.5394725
111.5394721
111.5394716
111.5394712
111.5394707
111.5394701
111.5394696
111.5394691
111.5394685
111.5394679
111.5394673
111.5394668
111.5394662
111.5394657
111.5394652
111.5394647
111.5394643
111.5394639
111.5394635
111.5394632
111.5394629
111.5394628
111.5394615
111.5394692
111.539434
111.5394886
111.5378742
111.5378805
111.5379176
111.5394644
111.5394643
111.5394643
111.5394642
111.539464
111.5394638
111.5394636
111.5394633
111.5394631
111.5394627
111.5394624
111.539462
111.5394615
111.5394611
111.5394606
111.53946
111.5394595
111.5394589
111.5394583
111.5394577
111.5394571
111.5394565
111.5394559
111.5394553
111.5394547
111.5394542
111.5394537
111.5394532
111.5394528
111.5394524
111.5394521
111.5394518
111.5394518
111.5394503
111.5394594
111.539416
111.5395064
111.5378707
111.5378782
111.537908
111.539454
111.5394539
111.5394539
111.5394538
111.5394536
111.5394534
111.5394532
111.5394529
111.5394526
111.5394523
111.5394519
111.5394515
111.539451
111.5394505
111.53945
111.5394494
111.5394489
111.5394482
111.5394476
111.539447
111.5394463
111.5394457
111.539445
111.5394444
111.5394438
111.5394432
111.5394427
111.5394422
111.5394417
111.5394414
111.539441
111.5394408
111.5394407
111.5394391
111.5394496
111.5393976
111.5395259
111.5378693
111.5378778
111.5378999
111.5394436
111.5394436
111.5394435
111.5394434
111.5394432
111.539443
111.5394428
111.5394425
111.5394422
111.5394418
111.5394414
111.539441
111.5394405
111.53944
111.5394395
111.5394389
111.5394383
111.5394376
111.5394369
111.5394363
111.5394356
111.5394349
111.5394342
111.5394335
111.5394329
111.5394322
111.5394317
111.5394311
111.5394307
111.5394302
111.5394299
111.5394297
111.5394297
111.5394278
111.5394401
111.5393781
111.5395475
111.5378683
111.5378794
111.5378935
111.5394333
111.5394333
111.5394332
111.5394331
111.5394329
111.5394327
111.5394325
111.5394322
111.5394318
111.5394315
111.539431
111.5394306
111.5394301
111.5394295
111.539429
111.5394283
111.5394277
111.539427
111.5394263
111.5394256
111.5394248
111.5394241
111.5394233
111.5394226
111.5394219
111.5394212
111.5394206
111.53942
111.5394195
111.5394191
111.5394188
111.5394185
111.5394186
111.5394165
111.5394309
111.5393579
111.5395704
111.5378678
111.5378831
111.5378889
111.539423
111.539423
111.5394229
111.5394228
111.5394226
111.5394224
111.5394221
111.5394219
111.5394215
111.5394211
111.5394207
111.5394202
111.5394197
111.5394191
111.5394185
111.5394178
111.5394171
111.5394164
111.5394157
111.5394149
111.5394141
111.5394133
111.5394125
111.5394117
111.5394109
111.5394102
111.5394095
111.5394089
111.5394084
111.5394079
111.5394076
111.5394073
111.5394074
111.5394051
111.5394218
111.5393371
111.5395935
111.537868
111.5378888
111.5378864
111.5394128
111.5394127
111.5394126
111.5394125
111.5394124
111.5394121
111.5394119
111.5394116
111.5394112
111.5394108
111.5394104
111.5394099
111.5394093
111.5394087
111.5394081
111.5394074
111.5394066
111.5394059
111.5394051
111.5394042
111.5394034
111.5394025
111.5394017
111.5394008
111.5394
111.5393992
111.5393985
111.5393978
111.5393972
111.5393967
111.5393963
111.5393961
111.5393963
111.5393935
111.5394131
111.5393153
111.5396156
111.5378725
111.5378961
111.5378859
111.5394026
111.5394025
111.5394024
111.5394023
111.5394021
111.5394019
111.5394016
111.5394013
111.539401
111.5394005
111.5394001
111.5393996
111.539399
111.5393984
111.5393977
111.5393969
111.5393962
111.5393954
111.5393945
111.5393936
111.5393927
111.5393918
111.5393908
111.5393899
111.539389
111.5393882
111.5393873
111.5393866
111.539386
111.5393854
111.539385
111.5393847
111.539385
111.5393816
111.539405
111.5392926
111.539634
111.5378849
111.5379042
111.5378876
111.5393924
111.5393924
111.5393923
111.5393921
111.539392
111.5393917
111.5393915
111.5393911
111.5393908
111.5393903
111.5393898
111.5393893
111.5393887
111.539388
111.5393873
111.5393866
111.5393857
111.5393849
111.539384
111.539383
111.539382
111.539381
111.53938
111.539379
111.539378
111.5393771
111.5393762
111.5393754
111.5393747
111.5393741
111.5393737
111.5393733
111.5393738
111.5393695
111.5393971
111.539271
111.5396435
111.5378894
111.537912
111.5378913
111.5393823
111.5393822
111.5393821
111.539382
111.5393818
111.5393816
111.5393813
111.539381
111.5393806
111.5393802
111.5393797
111.5393791
111.5393785
111.5393778
111.539377
111.5393762
111.5393754
111.5393744
111.5393735
111.5393725
111.5393714
111.5393703
111.5393692
111.5393681
111.5393671
111.539366
111.5393651
111.5393642
111.5393634
111.5393627
111.5393622
111.5393618
111.5393625
111.5393569
111.5393902
111.5392489
111.5396414
111.5379075
111.5379193
111.5378965
111.5393722
111.5393721
111.539372
111.5393719
111.5393717
111.5393715
111.5393712
111.5393709
111.5393705
111.53937
111.5393695
111.5393689
111.5393683
111.5393676
111.5393668
111.5393659
111.539365
111.5393641
111.539363
111.5393619
111.5393608
111.5393596
111.5393585
111.5393573
111.5393561
111.5393549
111.5393539
111.5393529
111.539352
111.5393512
111.5393507
111.5393501
111.5393512
111.539343
111.5393855
111.5392255
111.5396268
111.5379379
111.5379262
111.5379021
111.5393621
111.5393621
111.539362
111.5393618
111.5393617
111.5393614
111.5393612
111.5393608
111.5393604
111.53936
111.5393594
111.5393588
111.5393582
111.5393574
111.5393566
111.5393557
111.5393548
111.5393537
111.5393526
111.5393515
111.5393503
111.539349
111.5393477
111.5393464
111.5393451
111.5393439
111.5393426
111.5393415
111.5393405
111.5393396
111.539339
111.5393381
111.5393403
111.5393276
111.5393861
111.5392077
111.5395941
111.538009
111.537924
111.5379073
111.5393521
111.539352
111.539352
111.5393518
111.5393516
111.5393514
111.5393511
111.5393508
111.5393504
111.5393499
111.5393494
111.5393488
111.5393481
111.5393473
111.5393465
111.5393455
111.5393445
111.5393434
111.5393423
111.539341
111.5393397
111.5393384
111.539337
111.5393356
111.5393342
111.5393327
111.5393314
111.5393301
111.539329
111.539328
111.5393273
111.539326
111.5393323
111.5393148
111.5394033
111.5392036
111.5395468
111.538103
111.5379331
111.5379123
111.5393421
111.5393421
111.539342
111.5393419
111.5393417
111.5393414
111.5393412
111.5393408
111.5393404
111.53934
111.5393394
111.5393388
111.5393381
111.5393373
111.5393364
111.5393354
111.5393344
111.5393332
111.539332
111.5393307
111.5393293
111.5393278
111.5393263
111.5393248
111.5393232
111.5393217
111.5393202
111.5393188
111.5393176
111.5393167
111.5393163
111.5393172
111.5393353
111.5392997
111.5393964
111.539119
111.5394643
111.5381745
111.5379422
111.5379174
111.5393322
111.5393321
111.539332
111.5393319
111.5393317
111.5393315
111.5393312
111.5393309
111.5393305
111.53933
111.5393295
111.5393289
111.5393281
111.5393273
111.5393264
111.5393254
111.5393243
111.5393231
111.5393218
111.5393204
111.5393189
111.5393173
111.5393157
111.5393141
111.5393124
111.5393108
111.5393094
111.539308
111.5393067
111.539306
111.5393064
111.5393175
111.5392969
111.5387501
111.5378758
111.5378479
111.5390246
111.5381942
111.5379429
111.5379227
111.5393222
111.5393222
111.5393221
111.539322
111.5393218
111.5393216
111.5393214
111.539321
111.5393206
111.5393202
111.5393196
111.539319
111.5393183
111.5393174
111.5393165
111.5393154
111.5393143
111.539313
111.5393116
111.5393101
111.5393086
111.539307
111.5393053
111.5393037
111.5393021
111.5393004
111.5392982
111.539295
111.5392913
111.5392885
111.5392846
111.53923
111.5366541
111.5293043
111.5357794
111.5359101
111.5364198
111.5380925
111.5379399
111.5379284
111.5393124
111.5393123
111.5393122
111.5393121
111.539312
111.5393118
111.5393115
111.5393112
111.5393108
111.5393104
111.5393098
111.5393092
111.5393084
111.5393076
111.5393066
111.5393056
111.5393044
111.539303
111.5393016
111.5393001
111.5392986
111.5392971
111.5392956
111.5392938
111.5392909
111.5392857
111.5392757
111.53926
111.5392417
111.5392183
111.5391194
111.5350927
111.5304525
111.5344805
111.5376948
111.5381603
111.5381477
111.5381632
111.5379615
111.5379328
111.5393025
111.5393025
111.5393024
111.5393023
111.5393022
111.539302
111.5393017
111.5393014
111.5393011
111.5393006
111.5393001
111.5392994
111.5392987
111.5392978
111.5392969
111.5392958
111.5392945
111.5392932
111.5392919
111.5392906
111.5392894
111.5392877
111.5392846
111.5392782
111.539265
111.5392328
111.53914
111.5390485
111.5390281
111.5389173
111.5346729
111.5295713
111.5351889
111.5386921
111.5388934
111.5387127
111.5382776
111.5379327
111.5379167
111.5379379
111.5392927
111.5392926
111.5392926
111.5392925
111.5392924
111.5392922
111.539292
111.5392917
111.5392914
111.5392909
111.5392904
111.5392898
111.539289
111.5392882
111.5392872
111.5392862
111.5392852
111.5392842
111.5392833
111.5392818
111.5392785
111.539271
111.5392548
111.5392168
111.5390063
111.5376054
111.5355924
111.5362914
111.5378461
111.5337296
111.5291926
111.535145
111.5381993
111.5400341
111.5403091
111.5389564
111.53822
111.5374189
111.5378859
111.5379476
111.5392828
111.5392828
111.5392828
111.5392827
111.5392826
111.5392825
111.5392823
111.539282
111.5392817
111.5392813
111.5392808
111.5392803
111.5392796
111.539279
111.5392783
111.5392777
111.5392772
111.539276
111.5392723
111.5392627
111.5392374
111.5391508
111.5388026
111.5369877
111.5294808
111.5302655
111.5334937
111.5356046
111.5359667
111.5296474
111.5348278
111.5380649
111.5394797
111.5412094
111.5404034
111.5388144
111.5380333
111.5375496
111.5378812
111.5379569
111.5392731
111.5392731
111.5392731
111.539273
111.539273
111.5392729
111.5392727
111.5392726
111.5392723
111.5392721
111.5392718
111.5392716
111.5392714
111.5392713
111.539271
111.5392699
111.5392653
111.5392483
111.5391663
111.5387474
111.5370097
111.5326781
111.5281871
111.5289898
111.5311809
111.5342425
111.5360844
111.5366801
111.5352576
111.534692
111.5372851
111.5389062
111.539446
111.5405825
111.539928
111.5385737
111.5374783
111.5376674
111.5379117
111.5379667
111.5392643
111.5392643
111.5392643
111.5392643
111.5392644
111.5392644
111.5392645
111.5392646
111.5392648
111.5392649
111.5392651
111.5392649
111.5392641
111.5392602
111.53924
111.5391222
111.5384416
111.5354959
111.5287927
111.5270813
111.5292059
111.5309966
111.5321034
111.5330382
111.5348055
111.536459
111.5372196
111.5374877
111.5364957
111.5368506
111.5378942
111.5383884
111.5385541
111.5396879
111.5397831
111.539246
111.5383576
111.5375907
111.5379609
111.5379761
111.5392604
111.5392603
111.5392602
111.5392601
111.53926
111.5392597
111.5392592
111.5392579
111.5392542
111.5392409
111.5391845
111.538949
111.5380501
111.5350363
111.5281324
111.5249343
111.5266928
111.5285538
111.530481
111.5322407
111.5337212
111.5347269
111.535244
111.5358751
111.5367555
111.5374225
111.5377906
111.5379705
111.5377657
111.5375416
111.5378428
111.5379886
111.5383513
111.5386783
111.5392504
111.5390394
111.5382919
111.5379139
111.5380165
111.5379838
111.5372904
111.537371
111.5373471
111.5372354
111.5369942
111.5365269
111.5355457
111.5333942
111.5291964
111.5264003
111.5261441
111.5269824
111.528085
111.5291399
111.5303232
111.5315585
111.5326288
111.5336608
111.5347745
111.5357658
111.5364731
111.5369087
111.5371402
111.5373288
111.5376224
111.5379379
111.5381428
111.5384315
111.5383242
111.5375325
111.5377469
111.5377153
111.5379853
111.5383138
111.5388512
111.5387941
111.5384541
111.5381608
111.5380571
111.5379899
111.5385446
111.5387672
111.5388973
111.538959
111.538921
111.5386629
111.5378997
111.5362883
111.5342888
111.5331598
111.5331682
111.5336533
111.5341986
111.5347102
111.5352905
111.5358518
111.5362193
111.5365633
111.5370622
111.537468
111.5376713
111.5377921
111.5378624
111.537821
111.5378879
111.538063
111.5382261
111.5384639
111.5382022
111.5379467
111.5376202
111.5376624
111.5378328
111.5380861
111.5387382
111.5385927
111.5384886
111.5382433
111.5380397
111.5380001
111.5382467
111.5382357
111.538246
111.5382716
111.5383151
111.5383771
111.5384512
111.5384413
111.5382588
111.5379723
111.5379017
111.5380634
111.5383401
111.5384736
111.5384113
111.5383398
111.5382414
111.5381211
111.5380413
111.5379122
111.5378711
111.537909
111.5379213
111.5379108
111.5378094
111.5378344
111.5379076
111.5381546
111.5380299
111.5378478
111.5377146
111.5378049
111.537995
111.5383259
111.5389149
111.5386881
111.5384618
111.5383104
111.5380953
111.5380321
111.538471
111.5385156
111.538661
111.5389241
111.5394197
111.5404142
111.5421868
111.543195
111.5420638
111.5407517
111.5401864
111.5398928
111.5394634
111.5389425
111.5385345
111.5383166
111.5382417
111.5380458
111.5378591
111.5377032
111.5376587
111.5376831
111.5377812
111.5378116
111.5376512
111.5375244
111.5374951
111.5375583
111.5376315
111.5374799
111.5374256
111.537478
111.5380314
111.5386611
111.5399029
111.5398603
111.5386949
111.5385595
111.5384786
111.5381509
111.6488084
111.6352064
111.6282507
111.617737
111.5994375
111.5685725
111.5462432
111.5533746
111.5472053
111.5427988
111.5410469
111.5402149