/*--------------------------------*- C++ -*----------------------------------*\
| =========                 |                                                 |
| \\      /  F ield         | OpenFOAM: The Open Source CFD Toolbox           |
|  \\    /   O peration     | Version:  v1912                                 |
|   \\  /    A nd           | Website:  www.openfoam.com                      |
|    \\/     M anipulation  |                                                 |
\*---------------------------------------------------------------------------*/
FoamFile
{
    version     2.0;
    format      ascii;
    class       volVectorField;
    location    "0.6";
    object      U.gas;
}
// * * * * * * * * * * * * * * * * * * * * * * * * * * * * * * * * * * * * * //

dimensions      [0 1 -1 0 0 0 0];


internalField   nonuniform List<vector> 
4800
(
(0.00036218706 3.741735713e-19 0.01233236332)
(0.0006248079788 3.64853936e-19 0.01232974213)
(0.0009833976026 -1.423894783e-17 0.01232935072)
(0.001355888289 -1.085978162e-18 0.01232930094)
(0.001732758982 5.553708856e-19 0.01232937621)
(0.00211133474 4.312771064e-19 0.01232953601)
(0.002490500713 3.755648024e-19 0.01232977006)
(0.00286964954 9.22600237e-19 0.01233008053)
(0.003248366578 -1.240305825e-17 0.01233047397)
(0.003626314882 -4.099936526e-18 0.01233095879)
(0.004003186494 1.176939278e-17 0.01233154393)
(0.00437868081 1.690892956e-17 0.01233223801)
(0.004752496061 5.442863971e-18 0.01233304819)
(0.005124328063 5.21504042e-19 0.01233397947)
(0.005493873548 8.383385676e-20 0.0123350339)
(0.005860836854 3.234038382e-19 0.01233620979)
(0.006224939367 3.939990405e-19 0.01233750098)
(0.006585931392 4.060196774e-19 0.01233889606)
(0.006943606259 3.966626889e-19 0.01234037763)
(0.007297816569 3.738359327e-19 0.01234192148)
(0.007648492555 3.757910397e-19 0.01234349585)
(0.007995662628 3.800194053e-19 0.01234506055)
(0.008339476296 3.787491099e-19 0.01234656603)
(0.008680229811 3.693858042e-19 0.01234795225)
(0.009018395407 3.89495082e-19 0.01234914714)
(0.009354655837 3.810302088e-19 0.01235006424)
(0.009689946927 3.8507591e-19 0.01235059896)
(0.01002551206 4.202446116e-19 0.01235062447)
(0.01036297749 4.231611349e-19 0.01234998098)
(0.01070446364 4.14065007e-19 0.01234845951)
(0.01105275756 4.133962892e-19 0.01234577557)
(0.01141159468 3.975912562e-19 0.01234151887)
(0.01178618922 2.471351157e-19 0.01233503031)
(0.01218398155 1.369292131e-18 0.01232535728)
(0.01261861327 -4.218508586e-18 0.01230916874)
(0.01309424707 -5.286227374e-18 0.01229544717)
(0.01372850627 -4.116356358e-18 0.01220146496)
(0.01384863755 -2.243896632e-18 0.01262736866)
(0.0181952593 -5.509343034e-19 0.008879973918)
(0.01119525042 4.003128123e-19 0.01999168039)
(0.0003813340883 3.895768866e-19 0.02353724706)
(0.0006540297563 3.756909932e-19 0.02353187315)
(0.00102666677 -1.492701926e-17 0.02353086958)
(0.001414233421 -1.208355039e-18 0.02353072124)
(0.001806669942 5.847130827e-19 0.02353090599)
(0.002201145633 4.583277638e-19 0.02353131836)
(0.002596503128 3.947595217e-19 0.02353193395)
(0.002992129323 9.653999725e-19 0.0235327627)
(0.003387620587 -1.29177406e-17 0.02353382463)
(0.003782659504 -4.446632344e-18 0.02353514609)
(0.004176960336 1.217215947e-17 0.02353675506)
(0.004570245587 1.774602196e-17 0.02353867805)
(0.004962236813 5.931520763e-18 0.02354093729)
(0.005352652802 6.214282505e-19 0.0235435484)
(0.005741212645 7.431266272e-20 0.02354651805)
(0.006127642392 3.277134695e-19 0.02354984165)
(0.006511684611 4.108180003e-19 0.02355350107)
(0.006893110509 4.042214443e-19 0.02355746227)
(0.007271734404 3.952876787e-19 0.02356167299)
(0.007647430444 3.849891994e-19 0.02356606044)
(0.008020151546 3.98656818e-19 0.02357052883)
(0.008389950646 4.001142318e-19 0.02357495681)
(0.008757004419 4.074554902e-19 0.02357919463)
(0.009121639599 4.054346624e-19 0.02358306081)
(0.009484363027 4.055914017e-19 0.0235863374)
(0.009845896401 4.364912375e-19 0.02358876336)
(0.01020721725 4.507861433e-19 0.02359002442)
(0.01056961464 4.281702858e-19 0.02358973757)
(0.01093476244 4.234177178e-19 0.0235874237)
(0.0113048164 4.215681841e-19 0.02358246333)
(0.01168256398 4.249694403e-19 0.02357401938)
(0.01207166208 4.081744914e-19 0.02356089891)
(0.01247701498 1.88848136e-19 0.02354124507)
(0.01290526638 1.41827465e-18 0.0235124235)
(0.01336657431 -4.131794665e-18 0.02346604372)
(0.01386854145 -5.410265094e-18 0.02342308317)
(0.01454250664 -4.607175492e-18 0.02313248779)
(0.01489653804 -2.482063447e-18 0.02427934383)
(0.01635320961 -5.240949942e-19 0.01545037821)
(0.008797730979 4.929822896e-19 0.04574307134)
(0.0003820131164 3.637254893e-19 0.02219104946)
(0.0006550097224 3.792999308e-19 0.02218556555)
(0.001027880836 -1.493342437e-17 0.02218425946)
(0.001415607269 -1.208329312e-18 0.02218403699)
(0.001808246359 5.880162278e-19 0.02218428761)
(0.002202979483 4.544047672e-19 0.02218487409)
(0.002598647498 3.948626795e-19 0.02218577035)
(0.002994636592 9.658876942e-19 0.02218699709)
(0.003390542347 -1.292273892e-17 0.02218859108)
(0.003786043513 -4.445122512e-18 0.02219059861)
(0.004180850107 1.21871409e-17 0.02219306831)
(0.004574679773 1.775881416e-17 0.02219604592)
(0.004967248014 5.934583818e-18 0.02219957013)
(0.005358266156 6.030747328e-19 0.0222036685)
(0.005747444271 7.926283062e-20 0.02220835362)
(0.006134497734 3.261108683e-19 0.02221361922)
(0.006519156731 4.112324318e-19 0.02221943623)
(0.006901178343 3.89579628e-19 0.02222574894)
(0.007280361001 3.871739245e-19 0.02223247099)
(0.007656561151 4.00801918e-19 0.02223948154)
(0.008029712088 4.223320134e-19 0.02224662113)
(0.008399844969 4.043527285e-19 0.0222536874)
(0.008767112046 4.025109051e-19 0.02226043044)
(0.009131812204 3.960710629e-19 0.02226654752)
(0.009494419418 4.17879229e-19 0.0222716753)
(0.009855614917 4.308225137e-19 0.02227537994)
(0.01021632363 4.261690201e-19 0.0222771423)
(0.01057775987 4.321893971e-19 0.02227633124)
(0.01094148496 4.300087678e-19 0.02227216529)
(0.01130947789 3.995616344e-19 0.02226365106)
(0.01168422953 3.687431117e-19 0.02224947102)
(0.01206887189 3.250243779e-19 0.02222779317)
(0.01246734834 2.502158987e-19 0.02219588518)
(0.01288467206 1.389527746e-18 0.02214992917)
(0.01332755406 -4.082973736e-18 0.02207904494)
(0.01379943748 -5.445183066e-18 0.02200997312)
(0.01435368292 -4.547933899e-18 0.02157002967)
(0.01470324096 -2.489812897e-18 0.02314696822)
(0.01491896997 -2.797653549e-19 0.01257872225)
(0.007448539842 5.605369788e-19 0.05728098152)
(0.0003822631129 3.638403979e-19 0.02169955446)
(0.0006554417999 3.693627527e-19 0.02169413514)
(0.001028468774 -1.493437517e-17 0.0216927266)
(0.001416292465 -1.203877731e-18 0.02169247231)
(0.001809038304 5.836697331e-19 0.0216927832)
(0.002203915093 4.539696823e-19 0.0216935195)
(0.002599774425 3.942064385e-19 0.02169466363)
(0.002996006256 9.627874785e-19 0.02169624994)
(0.003392206466 -1.29311711e-17 0.02169833583)
(0.003788052381 -4.430962603e-18 0.02170098974)
(0.004183250192 1.221346304e-17 0.02170428256)
(0.004577511212 1.777731892e-17 0.02170828116)
(0.004970542021 5.9133989e-18 0.02171304249)
(0.005362042301 6.05642906e-19 0.02171860799)
(0.005751707612 7.634596682e-20 0.02172499815)
(0.006139235863 3.277933739e-19 0.02173220701)
(0.00652433676 4.03641311e-19 0.02174019663)
(0.00690674384 3.93182927e-19 0.02174889164)
(0.007286228855 3.988913346e-19 0.0217581737)
(0.007662618367 4.042454526e-19 0.02176787602)
(0.008035812394 4.297292625e-19 0.02177777777)
(0.008405805 4.077511074e-19 0.02178759818)
(0.008772706844 4.236376963e-19 0.02179699027)
(0.009136769621 4.219234348e-19 0.02180553403)
(0.009498412166 4.186483127e-19 0.02181272664)
(0.009858248719 4.325675904e-19 0.02181797011)
(0.01021711963 4.327696256e-19 0.02182055353)
(0.0105761236 4.475100674e-19 0.02181962263)
(0.0109366544 4.119161079e-19 0.02181413319)
(0.01130043959 3.817466635e-19 0.02180278454)
(0.01166957068 3.674427859e-19 0.02178390223)
(0.01204651383 3.377135131e-19 0.02175524197)
(0.01243406099 1.732880675e-19 0.02171361998)
(0.01283516731 1.446953945e-18 0.02165472779)
(0.01325231919 -4.166657155e-18 0.02156724134)
(0.01368491876 -5.55253768e-18 0.0214824065)
(0.0141266838 -4.533751593e-18 0.02099374783)
(0.0144450258 -2.315615423e-18 0.02273357531)
(0.01421808543 -1.469167403e-19 0.01171320252)
(0.006863415533 5.962285037e-19 0.06844793272)
(0.0003824812627 3.671064698e-19 0.02115704491)
(0.0006558143927 3.788751144e-19 0.02115173633)
(0.001029009285 -1.49400712e-17 0.02115031375)
(0.001416979931 -1.202431843e-18 0.02115005351)
(0.001809890852 5.873350298e-19 0.02115041257)
(0.002204975775 4.544499334e-19 0.02115126704)
(0.002601099988 3.946238841e-19 0.02115261585)
(0.002997660427 9.606939734e-19 0.02115451284)
(0.003394255518 -1.294089143e-17 0.02115703884)
(0.00379056179 -4.416047506e-18 0.02116028724)
(0.004186281218 1.223461389e-17 0.02116435405)
(0.004581117352 1.778551333e-17 0.02116932992)
(0.004974765323 5.893649806e-18 0.0211752929)
(0.005366909529 5.91930301e-19 0.02118230119)
(0.005757226276 7.805476512e-20 0.02119038612)
(0.006145390135 3.236211255e-19 0.02119954504)
(0.006531083304 4.008630579e-19 0.0212097342)
(0.006914007599 4.027538425e-19 0.02122086164)
(0.007293898785 3.990467489e-19 0.02123278016)
(0.007670543071 4.010232903e-19 0.02124528027)
(0.008043795524 4.077004057e-19 0.02125808316)
(0.008413600216 4.069151952e-19 0.02127083348)
(0.008780011969 4.235639614e-19 0.02128309166)
(0.009143219404 4.289205313e-19 0.02129432606)
(0.00950356847 4.220362266e-19 0.02130390238)
(0.009861586333 4.341066818e-19 0.02131107002)
(0.01021800521 4.309409832e-19 0.02131494357)
(0.01057378271 4.437110623e-19 0.02131447431)
(0.01093011634 4.069885813e-19 0.02130840355)
(0.01128844946 3.608253357e-19 0.02129519938)
(0.01165045002 3.266522722e-19 0.02127295956)
(0.01201792723 3.651282686e-19 0.02123925355)
(0.01239262231 1.694583233e-19 0.02119084386)
(0.01277579167 1.426340254e-18 0.02112363614)
(0.01316680198 -4.276542394e-18 0.02102764149)
(0.01356446406 -5.633817068e-18 0.02093533209)
(0.01393461397 -4.491033342e-18 0.02046516759)
(0.01417203501 -2.102763512e-18 0.02220302959)
(0.01362819023 -7.415464128e-20 0.0112804816)
(0.006433695721 6.189776689e-19 0.07901293486)
(0.0003826662185 3.6661193e-19 0.02061724073)
(0.0006561392051 3.733217373e-19 0.02061208589)
(0.001029506417 -1.494535146e-17 0.02061068641)
(0.001417653136 -1.190028527e-18 0.02061042352)
(0.001810772322 5.808868271e-19 0.02061080525)
(0.002206120036 4.525413219e-19 0.02061173339)
(0.002602576676 3.957514754e-19 0.02061322991)
(0.00299954829 9.572402559e-19 0.02061537332)
(0.003396637488 -1.296381149e-17 0.02061827145)
(0.003793520615 -4.39092449e-18 0.0206220462)
(0.004189895066 1.225680091e-17 0.02062682218)
(0.004585455237 1.776990466e-17 0.02063271737)
(0.004979882359 5.857927662e-18 0.02063983457)
(0.005372841988 5.871189204e-19 0.02064825251)
(0.005763986481 7.559697263e-20 0.02065801722)
(0.00615296123 3.207341592e-19 0.02066913332)
(0.006539413947 4.001509084e-19 0.02068155522)
(0.006923006602 3.974596104e-19 0.02069517844)
(0.007303429729 4.03942428e-19 0.02070983094)
(0.007680418831 4.025087292e-19 0.0207252647)
(0.008053772641 4.178289723e-19 0.0207411473)
(0.008423372876 4.198096551e-19 0.02075705359)
(0.008789205118 4.356921363e-19 0.02077245694)
(0.009151380678 4.30862578e-19 0.02078672069)
(0.009510157754 4.231210429e-19 0.02079908812)
(0.009865961105 4.301322729e-19 0.0208086688)
(0.01021939929 4.313654294e-19 0.02081442171)
(0.01057127601 4.357069091e-19 0.02081513116)
(0.01092258802 3.753312385e-19 0.02080936987)
(0.0112745039 3.413116809e-19 0.02079544601)
(0.0116283119 3.501153909e-19 0.02077133499)
(0.01198530005 3.749072521e-19 0.02073458343)
(0.01234651183 1.608122836e-19 0.02068214551)
(0.01271225155 1.412808601e-18 0.02061054303)
(0.01308036392 -4.322900743e-18 0.02051210437)
(0.01345030714 -5.677123735e-18 0.02041656172)
(0.0137770446 -4.454544711e-18 0.0199969784)
(0.01394387198 -1.988682558e-18 0.02163226982)
(0.01309121103 6.640003389e-20 0.0112144455)
(0.006039925983 6.312664931e-19 0.0891697803)
(0.0003828226586 3.675210501e-19 0.02007698276)
(0.0006564221162 3.797772424e-19 0.0200720137)
(0.001029957882 -1.495099931e-17 0.02007064635)
(0.001418295381 -1.175273954e-18 0.02007036411)
(0.001811653303 5.815190573e-19 0.02007072768)
(0.002207309167 4.50900694e-19 0.02007167)
(0.002604159648 3.945944419e-19 0.02007324133)
(0.003001621624 9.52906669e-19 0.02007554952)
(0.003399303287 -1.298458977e-17 0.02007873365)
(0.003796881402 -4.361454945e-18 0.02008294816)
(0.004194048493 1.232173626e-17 0.02008835049)
(0.004590488517 1.777604039e-17 0.02009509036)
(0.004985866432 5.823982004e-18 0.02010329978)
(0.005379825487 5.700014067e-19 0.0201130827)
(0.005771989478 7.402473685e-20 0.02012450467)
(0.006161968838 3.214489178e-19 0.02013758244)
(0.006549369857 4.043654469e-19 0.02015227355)
(0.006933806586 4.006051179e-19 0.02016846593)
(0.007314915157 4.07622229e-19 0.02018596774)
(0.007692370215 4.039682253e-19 0.02020449743)
(0.008065903098 4.187967629e-19 0.02022367412)
(0.008435321371 4.165902582e-19 0.02024300832)
(0.008800529083 4.205232028e-19 0.02026189258)
(0.009161547699 4.342799448e-19 0.02027959221)
(0.009518535627 4.265306929e-19 0.02029523715)
(0.009871804677 4.320289635e-19 0.02030780943)
(0.01022183237 4.298099471e-19 0.02031612974)
(0.01056926608 4.215713488e-19 0.02031883969)
(0.01091491343 3.753251603e-19 0.02031437748)
(0.01125970749 3.536787248e-19 0.02030094418)
(0.01160463914 3.488523079e-19 0.02027646228)
(0.01195065115 3.505965607e-19 0.0202385267)
(0.01229842252 1.547294314e-19 0.02018435783)
(0.01264803497 1.463569538e-18 0.02011111178)
(0.01299756045 -4.429504505e-18 0.02001350279)
(0.01334839481 -5.78276802e-18 0.01991591937)
(0.01365249083 -4.401946077e-18 0.01955922903)
(0.01391791147 -1.927859151e-18 0.02098579158)
(0.01286958596 1.215184508e-19 0.01148605376)
(0.00578407061 6.678025614e-19 0.09896248212)
(0.0003829473714 3.677717472e-19 0.01953650653)
(0.0006566562047 3.688792341e-19 0.01953174668)
(0.001030347473 -1.495740489e-17 0.01953040225)
(0.00141887781 -1.169013615e-18 0.01953006643)
(0.001812492878 5.824626677e-19 0.01953035465)
(0.002208492534 4.510850145e-19 0.0195312348)
(0.00260579132 3.966353745e-19 0.01953278989)
(0.003003818712 9.460428156e-19 0.01953516174)
(0.003402189907 -1.300716817e-17 0.01953852519)
(0.003800582816 -4.33287667e-18 0.01954307196)
(0.004198684936 1.237269237e-17 0.01954899724)
(0.004596168643 1.779334625e-17 0.01955648768)
(0.004992680408 5.785181214e-18 0.01956570988)
(0.005387837813 5.566801491e-19 0.01957679861)
(0.005781231571 7.551784436e-20 0.01958984468)
(0.006172431458 3.252820308e-19 0.01960488286)
(0.00656099545 4.020203508e-19 0.01962187969)
(0.006946481654 4.055505019e-19 0.01964072146)
(0.007328462716 4.06916156e-19 0.01966120234)
(0.007706542382 4.073049686e-19 0.01968301309)
(0.008080373804 4.273188327e-19 0.01970573024)
(0.008449679114 4.242149047e-19 0.0197288059)
(0.008814269523 4.312441311e-19 0.01975155821)
(0.009174065501 4.335523949e-19 0.01977316149)
(0.009529115912 4.235173822e-19 0.01979264032)
(0.009879612868 4.289930059e-19 0.01980885967)
(0.01022590096 4.227332377e-19 0.01982051554)
(0.01056847804 4.047285588e-19 0.01982612501)
(0.01090798144 3.585956603e-19 0.01982401409)
(0.011245154 3.224458403e-19 0.01981230385)
(0.01158078337 3.543018145e-19 0.01978889236)
(0.01191560282 3.352592978e-19 0.01975143833)
(0.01225013134 1.560891987e-19 0.01969739978)
(0.01258457191 1.437361341e-18 0.01962431225)
(0.01291810262 -4.489736785e-18 0.01952854016)
(0.0132562983 -5.859423108e-18 0.01942663122)
(0.01355300721 -4.367764693e-18 0.01913409979)
(0.0137170045 -1.77091022e-18 0.02024861665)
(0.01231706368 2.244377214e-19 0.01207910811)
(0.005388422996 6.395316351e-19 0.1084261217)
(0.0003830318665 3.66523995e-19 0.01899585328)
(0.0006568259857 3.674136764e-19 0.018991319)
(0.001030648372 -1.496833981e-17 0.01898997439)
(0.001419360547 -1.157648028e-18 0.0189895347)
(0.001813238656 5.850540425e-19 0.01898967322)
(0.002209607216 4.519117689e-19 0.01899039622)
(0.002607400877 3.971359678e-19 0.01899182365)
(0.003006063813 9.398435093e-19 0.01899413599)
(0.003405219877 -1.30288794e-17 0.01899754889)
(0.003804549065 -4.289419317e-18 0.01900229656)
(0.0042037339 1.240668458e-17 0.01900861767)
(0.004602434255 1.780134165e-17 0.01901674178)
(0.005000276091 5.743047351e-18 0.0190268764)
(0.005396848113 5.347401429e-19 0.01903919364)
(0.005791703545 7.96453222e-20 0.01905381631)
(0.006184365864 3.367712176e-19 0.01907080404)
(0.006574337891 4.096273357e-19 0.01909013929)
(0.006961113791 4.084378665e-19 0.01911171352)
(0.007344193659 4.010932369e-19 0.01913531368)
(0.007723100363 4.143688799e-19 0.01916060942)
(0.008097398225 4.341585603e-19 0.01918714105)
(0.008466712973 4.275266507e-19 0.01921430857)
(0.008830752254 4.343844285e-19 0.01924136191)
(0.00918932549 4.329444794e-19 0.01926739133)
(0.009542363702 4.234219153e-19 0.01929132217)
(0.009889934683 4.27544864e-19 0.01931191013)
(0.01023225123 4.114773878e-19 0.0193277354)
(0.01056967152 3.950626709e-19 0.01933720106)
(0.01090268624 3.603880833e-19 0.01933853224)
(0.01123188975 3.294911731e-19 0.01932977702)
(0.0115579353 3.198510583e-19 0.01930880412)
(0.01188144725 3.731221008e-19 0.01927332931)
(0.01220289929 2.052491729e-19 0.01922098063)
(0.01252260364 1.509507616e-18 0.01914944443)
(0.01284023957 -4.605729176e-18 0.01905601396)
(0.01316319241 -5.964310915e-18 0.01894712423)
(0.01345207374 -4.309900535e-18 0.0187129368)
(0.0135530616 -1.552120479e-18 0.01944690098)
(0.01187506196 3.063633265e-19 0.01300724898)
(0.005065609487 6.231456199e-19 0.1175830663)
(0.0003830632498 3.611618438e-19 0.01845509146)
(0.0006569088987 3.57386777e-19 0.01845079299)
(0.001030824152 -1.497910235e-17 0.01844941304)
(0.001419692546 -1.135600222e-18 0.01844880358)
(0.001813825787 5.872776818e-19 0.01844869988)
(0.002210576525 4.53151981e-19 0.0184491502)
(0.002608902513 3.999021243e-19 0.01845031578)
(0.003008265194 9.34180003e-19 0.01845242065)
(0.003408299097 -1.306132761e-17 0.01845572678)
(0.003808687553 -4.246171437e-18 0.0184605168)
(0.004209108465 1.246655482e-17 0.01846707921)
(0.004609208563 1.780721428e-17 0.01847569343)
(0.005008591491 5.693594454e-18 0.01848661509)
(0.005406814051 5.205385662e-19 0.01850006113)
(0.005803387705 8.890850056e-20 0.01851619415)
(0.006197784077 3.437588207e-19 0.01853510653)
(0.006589444008 4.144080754e-19 0.01855680454)
(0.006977789687 4.135094472e-19 0.01858119263)
(0.007362239538 4.098780665e-19 0.01860805816)
(0.007742225521 4.264607421e-19 0.01863705697)
(0.008117212455 4.441019804e-19 0.01866770006)
(0.008486718744 4.360691995e-19 0.01869934179)
(0.008850337797 4.362964718e-19 0.01873116983)
(0.009207758648 4.254641815e-19 0.01876219651)
(0.009558786675 4.20523955e-19 0.01879125254)
(0.009903361194 4.230743351e-19 0.01881698862)
(0.0102415648 3.962322854e-19 0.01883787359)
(0.01057362521 3.880975997e-19 0.01885219977)
(0.01089990788 3.595791808e-19 0.01885809149)
(0.0112208973 3.435163273e-19 0.01885351624)
(0.01153715644 3.372471378e-19 0.01883629946)
(0.01184925414 3.771781846e-19 0.01880418665)
(0.01215769184 2.066202135e-19 0.01875490043)
(0.01246289633 1.515805208e-18 0.01868618464)
(0.01276450064 -4.685355598e-18 0.01859618942)
(0.01306937542 -6.038057642e-18 0.01848074605)
(0.01333668525 -4.231320189e-18 0.01830214017)
(0.01332667608 -1.43684731e-18 0.01861723027)
(0.01141345104 3.709946338e-19 0.01420334328)
(0.004771064359 6.079249935e-19 0.1264616772)
(0.0003830246596 3.519174375e-19 0.01791430985)
(0.0006568758929 3.458527191e-19 0.01791025161)
(0.001030829097 -1.499015671e-17 0.01790878961)
(0.001419811171 -1.116710198e-18 0.01790792863)
(0.001814175871 5.835064349e-19 0.01790747075)
(0.002211308475 4.536483326e-19 0.01790751026)
(0.002610193554 4.038715578e-19 0.01790825431)
(0.003010312985 9.27388935e-19 0.01790997583)
(0.003411314452 -1.310034839e-17 0.01791298908)
(0.003812886311 -4.194426658e-18 0.01791763181)
(0.00421470256 1.255327023e-17 0.01792424945)
(0.004616396435 1.780453905e-17 0.01793317904)
(0.005017547768 5.639618201e-18 0.0179447326)
(0.005417678658 5.063750589e-19 0.01795918043)
(0.005816254653 9.718216411e-20 0.01797673376)
(0.006212690053 3.4716387e-19 0.01799752668)
(0.0066063569 4.197557035e-19 0.01802159827)
(0.006996597294 4.160031262e-19 0.01804887481)
(0.007382738705 4.39045373e-19 0.01807915258)
(0.007764111954 4.352141919e-19 0.01811208167)
(0.008140071433 4.364991681e-19 0.01814715121)
(0.008510017007 4.359739993e-19 0.01818367659)
(0.008873416875 4.350616391e-19 0.01822078891)
(0.009229830251 3.902655276e-19 0.01825742725)
(0.009578928884 4.165384148e-19 0.01829233172)
(0.009920518382 4.160105556e-19 0.01832404849)
(0.0102545511 3.80701025e-19 0.01835093573)
(0.01058113159 3.715518781e-19 0.01837117136)
(0.01090051726 3.544048142e-19 0.01838276992)
(0.01121310903 3.606855484e-19 0.01838360068)
(0.01151941026 3.647988805e-19 0.01837143312)
(0.01181996943 3.725871897e-19 0.01834400371)
(0.01211534257 2.45329822e-19 0.01829905697)
(0.01240610455 1.494010077e-18 0.01823433527)
(0.01269227208 -4.736004997e-18 0.01814883624)
(0.01297957751 -6.120917336e-18 0.01802916994)
(0.01322339097 -4.133066682e-18 0.01791072116)
(0.01309568913 -1.350953693e-18 0.01781278834)
(0.01099608066 4.277255253e-19 0.01556828472)
(0.004524117207 5.89649788e-19 0.135086636)
(0.0003828953666 3.687327104e-19 0.01737362391)
(0.0006566914662 3.554361933e-19 0.01736980453)
(0.001030607911 -1.500306006e-17 0.01736820197)
(0.00141964147 -1.101036517e-18 0.01736699102)
(0.001814195692 5.863065495e-19 0.01736604593)
(0.002211694017 4.47689385e-19 0.01736551148)
(0.002611152339 3.977713272e-19 0.01736564587)
(0.003012076746 9.098503473e-19 0.01736677672)
(0.003414131129 -1.313769192e-17 0.01736927717)
(0.003817011056 -4.147037736e-18 0.01737354748)
(0.004220387776 1.259618998e-17 0.01737999799)
(0.004623881032 1.780565292e-17 0.01738903196)
(0.005027045703 5.559015183e-18 0.01740102713)
(0.005429366657 4.739209771e-19 0.01741631686)
(0.00583025954 8.922178688e-20 0.0174351709)
(0.00622907591 3.387594414e-19 0.01745777522)
(0.006625112148 4.043675454e-19 0.01748421183)
(0.007017622023 4.051934192e-19 0.01751443878)
(0.007405832522 4.134315447e-19 0.01754827079)
(0.007788962697 4.278296229e-19 0.01758536109)
(0.0081662451 4.360461665e-19 0.01762518497)
(0.008536949281 4.159670919e-19 0.01766702571)
(0.008900406594 4.138697688e-19 0.01770996337)
(0.009256035728 4.143680096e-19 0.01775286709)
(0.009603366537 4.014201095e-19 0.01779438951)
(0.009942063569 3.954923161e-19 0.01783297096)
(0.01027194595 3.590475445e-19 0.01786685457)
(0.01059299982 3.643590451e-19 0.01789409491)
(0.01090538687 3.448530974e-19 0.0179125804)
(0.01120943684 3.175808369e-19 0.01792006446)
(0.01150561213 2.981398474e-19 0.01791423969)
(0.01179447602 3.441069451e-19 0.01789278728)
(0.01207665686 1.930433013e-19 0.01785342515)
(0.0123528314 1.543877065e-18 0.01779385087)
(0.01262320771 -4.903828501e-18 0.01771371163)
(0.01289255586 -6.142516909e-18 0.01759241363)
(0.01311724655 -4.136165756e-18 0.01753697881)
(0.01289209975 -1.231181891e-18 0.01704802646)
(0.01061950995 4.510183523e-19 0.0170536954)
(0.004296324517 6.156369534e-19 0.1434803987)
(0.0003826506615 3.654258029e-19 0.01683318123)
(0.0006563134284 3.436695594e-19 0.01682959329)
(0.001030095112 -1.501929252e-17 0.01682777927)
(0.001419095077 -1.073987804e-18 0.01682610187)
(0.001813775704 5.835726109e-19 0.01682451352)
(0.002211605108 4.450176648e-19 0.0168232143)
(0.002611635873 3.965674773e-19 0.01682251909)
(0.003013402765 8.969687578e-19 0.0168228166)
(0.003416589582 -1.318591551e-17 0.01682454608)
(0.003820901846 -4.089513816e-18 0.01682817839)
(0.004226009745 1.267141757e-17 0.01683419778)
(0.004631520002 1.781199435e-17 0.01684308321)
(0.005036961714 5.48324375e-18 0.0168552885)
(0.005441780325 4.484369935e-19 0.016871221)
(0.005845337808 9.154429835e-20 0.01689122011)
(0.00624691761 3.342959541e-19 0.01691553507)
(0.006645733531 4.022111805e-19 0.01694430222)
(0.007040942539 4.044476557e-19 0.0169775225)
(0.007431661242 4.159045877e-19 0.0170150397)
(0.007816985759 4.271308644e-19 0.01705652003)
(0.008196014661 4.330872139e-19 0.01710143365)
(0.008567874457 4.157396e-19 0.01714903897)
(0.008931746986 4.11108805e-19 0.01719837039)
(0.009286898221 4.229044677e-19 0.01724822983)
(0.009632705922 4.063977563e-19 0.01729718351)
(0.009968684322 3.897385912e-19 0.01734356526)
(0.0102945138 3.564766445e-19 0.01738549262)
(0.01061006319 3.562312648e-19 0.01742088406)
(0.01091540053 3.395056217e-19 0.0174474829)
(0.01121078486 3.238738948e-19 0.01746291215)
(0.01149665727 3.124789779e-19 0.01746474591)
(0.01177363357 3.439883871e-19 0.01745055949)
(0.01204244332 2.468439994e-19 0.01741801585)
(0.01230387622 1.559217237e-18 0.01736476075)
(0.01255827653 -4.971804506e-18 0.01729100923)
(0.01280957569 -6.19892717e-18 0.01717046927)
(0.01301726573 -4.053635267e-18 0.0171763658)
(0.01270166225 -1.13508575e-18 0.01630831249)
(0.01027163438 5.005336895e-19 0.0186538648)
(0.004087859677 5.897802449e-19 0.1516631029)
(0.0003822616128 3.686788322e-19 0.01629316739)
(0.0006556924363 3.323661494e-19 0.016289797)
(0.001029214259 -1.503672785e-17 0.01628768722)
(0.001418068935 -1.047628941e-18 0.01628540733)
(0.0018127883 5.807182119e-19 0.01628299428)
(0.002210892513 4.429609702e-19 0.01628070884)
(0.002611477166 3.964295391e-19 0.01627892855)
(0.003014111034 8.831202104e-19 0.01627811038)
(0.003418502135 -1.32383053e-17 0.01627876754)
(0.003824369365 -4.0242077e-18 0.01628145041)
(0.004231384174 1.277998062e-17 0.01628672703)
(0.004639141219 1.78006079e-17 0.01629516272)
(0.005047143365 5.401008575e-18 0.01630729867)
(0.005454794842 4.314787575e-19 0.01632362845)
(0.005861400443 9.549891287e-20 0.01634457368)
(0.006266170175 3.38841263e-19 0.01637045957)
(0.006668228253 4.009719374e-19 0.01640148951)
(0.007066626111 4.074693816e-19 0.01643771983)
(0.007460359589 3.94216105e-19 0.0164790353)
(0.007848390007 3.985767794e-19 0.01652512606)
(0.008229668847 4.191587718e-19 0.0165754667)
(0.008603165621 4.15774465e-19 0.01662929857)
(0.008967898503 4.02239122e-19 0.01668561578)
(0.009322966952 4.431099578e-19 0.01674315553)
(0.009667582437 4.149998579e-19 0.01680039779)
(0.01000109851 3.803389192e-19 0.01685556755)
(0.0103230483 3.564380745e-19 0.01690664376)
(0.01063317628 3.283789797e-19 0.01695139249)
(0.0109314483 3.504227936e-19 0.01698739708)
(0.01121805976 3.338667832e-19 0.01701212168)
(0.01149345084 3.439663794e-19 0.01702297129)
(0.0117583013 3.538887417e-19 0.01701736616)
(0.01201348752 2.79181838e-19 0.01699286624)
(0.01226001622 1.514823405e-18 0.01694704814)
(0.01249855435 -5.028437478e-18 0.01688061823)
(0.01273243291 -6.271764275e-18 0.01676290472)
(0.01292519479 -3.967459775e-18 0.01682623837)
(0.01252952939 -1.071953622e-18 0.01558671395)
(0.009952217499 6.492847939e-19 0.02036050172)
(0.003894193494 5.69539531e-19 0.1596503088)
(0.0003816947155 3.716544727e-19 0.01575381212)
(0.0006547713672 3.328163702e-19 0.0157506384)
(0.001027876899 -1.504887913e-17 0.01574813397)
(0.001416443832 -1.017759365e-18 0.01574509408)
(0.001811085767 5.821692154e-19 0.0157416469)
(0.002209383339 4.43974106e-19 0.01573811978)
(0.002610482393 4.00799842e-19 0.0157349594)
(0.003013991909 8.747422531e-19 0.01573269871)
(0.003419649245 -1.329027599e-17 0.01573193358)
(0.00382719083 -3.944795219e-18 0.01573330365)
(0.004236292316 1.285950345e-17 0.01573747156)
(0.004646537946 1.781450877e-17 0.01574510087)
(0.005057404416 5.325847222e-18 0.01575683258)
(0.005468253183 4.0971829e-19 0.0157732599)
(0.005878328697 1.127399746e-19 0.01579490087)
(0.006286762389 3.569308931e-19 0.01582217077)
(0.006692581717 4.128792452e-19 0.01585535434)
(0.007094723538 4.096566287e-19 0.01589457729)
(0.007492051988 4.215190385e-19 0.01593977871)
(0.007883380856 4.297973799e-19 0.01599068493)
(0.008267500227 4.322996239e-19 0.01604678575)
(0.008643207214 4.225753634e-19 0.01610731395)
(0.009009340342 4.204054036e-19 0.01617122895)
(0.009364815465 4.162428506e-19 0.01623720645)
(0.009708660899 4.015689957e-19 0.01630364005)
(0.01004005683 3.815759393e-19 0.01636863895)
(0.01035837458 3.636378653e-19 0.01643003492)
(0.01066321659 3.686869783e-19 0.01648542202)
(0.01095444339 3.461055431e-19 0.01653220338)
(0.01123219492 3.291254852e-19 0.01656764263)
(0.01149691287 3.353465728e-19 0.01658893202)
(0.01174934437 3.707977542e-19 0.01659328548)
(0.01199053537 2.368180568e-19 0.01657807726)
(0.01222180134 1.57201061e-18 0.01654074256)
(0.01244441746 -5.153784821e-18 0.01648227408)
(0.01266216502 -6.312105575e-18 0.01636848931)
(0.01284465144 -3.930223872e-18 0.01648301298)
(0.01238217953 -9.393741342e-19 0.01487504787)
(0.009659589753 5.817679402e-19 0.0221760007)
(0.003710099337 5.427506868e-19 0.1674538407)
(0.0003809114647 3.704940358e-19 0.01521539616)
(0.0006534845781 3.225608368e-19 0.01521239055)
(0.001025981379 -1.50694754e-17 0.01520937662)
(0.001414082715 -9.88714887e-19 0.01520539563)
(0.001808498091 5.792098686e-19 0.01520067399)
(0.002206878368 4.439739936e-19 0.015195612)
(0.002608427644 4.023770543e-19 0.01519073253)
(0.003012802348 8.589788912e-19 0.01518665267)
(0.003419775329 -1.335257805e-17 0.0151840607)
(0.003829105378 -3.865895231e-18 0.01518369602)
(0.004240476094 1.296344047e-17 0.01518632772)
(0.004653463655 1.781053384e-17 0.01519273062)
(0.005067519223 5.231536558e-18 0.01520365946)
(0.005481960322 3.948207369e-19 0.01521982168)
(0.005895968255 1.188899821e-19 0.01524184741)
(0.006308590926 3.555521635e-19 0.01527025808)
(0.006718751768 4.133896961e-19 0.01530543561)
(0.007125263649 4.12453721e-19 0.01534759078)
(0.007526847438 4.212167976e-19 0.01539673203)
(0.007922155765 4.017657723e-19 0.01545263577)
(0.008309801747 4.172660032e-19 0.01551481912)
(0.008688392759 4.187016335e-19 0.01558251593)
(0.009056568968 4.078723697e-19 0.01565465739)
(0.009413041693 4.028831336e-19 0.01572986285)
(0.009756637845 4.040570726e-19 0.01580643612)