/*--------------------------------*- C++ -*----------------------------------*\
| =========                 |                                                 |
| \\      /  F ield         | OpenFOAM: The Open Source CFD Toolbox           |
|  \\    /   O peration     | Version:  v1912                                 |
|   \\  /    A nd           | Website:  www.openfoam.com                      |
|    \\/     M anipulation  |                                                 |
\*---------------------------------------------------------------------------*/
FoamFile
{
    version     2.0;
    format      ascii;
    class       volVectorField;
    location    "0.6";
    object      U.gas_0;
}
// * * * * * * * * * * * * * * * * * * * * * * * * * * * * * * * * * * * * * //

dimensions      [0 1 -1 0 0 0 0];


internalField   nonuniform List<vector> 
4800
(
(0.0003607043431 3.735893547e-19 0.01233341166)
(0.0006222472912 3.635868912e-19 0.01233080291)
(0.0009793753222 -1.421611769e-17 0.01233040636)
(0.001350369687 -1.078371836e-18 0.01233034484)
(0.001725758212 5.541522143e-19 0.01233040348)
(0.002102885976 4.301822223e-19 0.01233054217)
(0.002480651469 3.749945469e-19 0.01233075083)
(0.002858458269 9.186571373e-19 0.01233103176)
(0.003235901526 -1.23912512e-17 0.01233139166)
(0.003612653363 -4.077999591e-18 0.01233183908)
(0.003988414296 1.176657469e-17 0.01233238315)
(0.004362891673 1.68783533e-17 0.01233303264)
(0.00473579116 5.414642004e-18 0.01233379493)
(0.005106815449 5.153385298e-19 0.01233467524)
(0.005475667551 8.481018388e-20 0.01233567584)
(0.005842057441 3.237158603e-19 0.01233679532)
(0.006205711455 3.933255671e-19 0.01233802779)
(0.006566384114 4.052677878e-19 0.01233936217)
(0.006923872188 3.96003125e-19 0.01234078134)
(0.007278030909 3.731503483e-19 0.01234226144)
(0.007628792295 3.751753656e-19 0.01234377106)
(0.007976185676 3.793547904e-19 0.01234527036)
(0.008320360586 3.778827648e-19 0.01234671015)
(0.008661612401 3.686659331e-19 0.01234803076)
(0.009000411576 3.885455285e-19 0.01234916049)
(0.009337438202 3.801024687e-19 0.01235001324)
(0.009673624479 3.842296215e-19 0.01235048483)
(0.01001020923 4.1926259e-19 0.01235044882)
(0.01034881331 4.223931094e-19 0.01234974578)
(0.01069155061 4.133169924e-19 0.01234816715)
(0.01104120055 4.127165384e-19 0.01234542897)
(0.01140148979 3.968913044e-19 0.01234112138)
(0.01177762215 2.468645738e-19 0.01233458606)
(0.01217702843 1.368542785e-18 0.0123248693)
(0.01261331778 -4.222214233e-18 0.01230865648)
(0.01309072525 -5.286080346e-18 0.01229484436)
(0.01372651544 -4.107914117e-18 0.01220107668)
(0.01384874171 -2.230944801e-18 0.01262632786)
(0.0181976659 -5.408320493e-19 0.008879279855)
(0.01119684031 4.037382826e-19 0.01999287637)
(0.0003797570579 3.887101635e-19 0.02354045776)
(0.0006513274375 3.742593983e-19 0.02353510735)
(0.001022437536 -1.49020964e-17 0.02353408679)
(0.001408438311 -1.199878866e-18 0.02353390277)
(0.001799321522 5.834577664e-19 0.02353403735)
(0.002192277571 4.570792576e-19 0.02353438608)
(0.002586162915 3.941061848e-19 0.02353492519)
(0.002980375697 9.611223705e-19 0.02353566498)
(0.003374522273 -1.29051962e-17 0.02353662593)
(0.003768294427 -4.422403469e-18 0.02353783481)
(0.004161415064 1.216988641e-17 0.02353932012)
(0.004553614791 1.77129482e-17 0.02354110887)
(0.00494462272 5.900017911e-18 0.0235432239)
(0.00533416465 6.141580787e-19 0.02354568148)
(0.005721966083 7.542046297e-20 0.023548489)
(0.006107758839 3.279959708e-19 0.02355164267)
(0.006491290565 4.102021279e-19 0.02355512519)
(0.006872336815 4.034577312e-19 0.02355890343)
(0.007250715474 3.944283538e-19 0.02356292609)
(0.007626303446 3.842806323e-19 0.02356712137)
(0.007999055556 3.97693314e-19 0.02357139452)
(0.008369025783 3.99226893e-19 0.02357562524)
(0.008736390952 4.066740695e-19 0.02357966489)
(0.009101477043 4.047125669e-19 0.02358333311)
(0.009464789245 4.05067945e-19 0.02358641303)
(0.009827046616 4.356937982e-19 0.02358864474)
(0.01018922331 4.497590021e-19 0.02358971506)
(0.01055260434 4.273459368e-19 0.02358924214)
(0.01091885837 4.226391807e-19 0.02358674804)
(0.01129013487 4.211138329e-19 0.02358161452)
(0.01166921422 4.246150697e-19 0.0235730059)
(0.01205974526 4.070204165e-19 0.02355973053)
(0.01246662311 1.883376138e-19 0.02353993366)
(0.01289648248 1.417744396e-18 0.02351097819)
(0.01335946644 -4.136690235e-18 0.02346451097)
(0.01386322937 -5.411176926e-18 0.02342128936)
(0.01453869261 -4.598219974e-18 0.02313136497)
(0.01489438138 -2.466828203e-18 0.02427650176)
(0.01635390665 -5.133307343e-19 0.01544747386)
(0.00879893074 4.953498817e-19 0.0457462475)
(0.0003804207306 3.6336479e-19 0.02219649927)
(0.0006522831903 3.77886872e-19 0.02219103437)
(0.001023616264 -1.490850008e-17 0.02218969701)
(0.001409765751 -1.199821922e-18 0.02218941428)
(0.001800840251 5.867073053e-19 0.02218958073)
(0.002194042341 4.532194738e-19 0.02219006067)
(0.002588226818 3.942105833e-19 0.02219082894)
(0.002982791184 9.615982468e-19 0.02219190688)
(0.003377341067 -1.291025269e-17 0.02219333196)
(0.003771564506 -4.420860908e-18 0.02219515121)
(0.004165180234 1.218485142e-17 0.02219741405)
(0.004557914062 1.772571913e-17 0.02220016711)
(0.004949489118 5.903094925e-18 0.02220345005)
(0.005339623793 5.957715185e-19 0.02220729154)
(0.005728034626 8.035363406e-20 0.02221170536)
(0.006114442812 3.265071583e-19 0.02221668654)
(0.00649858366 4.104467686e-19 0.02222220744)
(0.006880218638 3.887883344e-19 0.02222821384)
(0.007259149777 3.861630218e-19 0.02223462098)
(0.007635236297 3.999232584e-19 0.02224130969)
(0.008008413421 4.215023208e-19 0.02224812223)
(0.008378713354 4.033722037e-19 0.02225485802)
(0.008746288503 4.015884914e-19 0.02226126898)
(0.009111437001 3.953102439e-19 0.02226705424)
(0.009474631171 4.171812814e-19 0.02227185231)
(0.009836549657 4.300125257e-19 0.02227523121)
(0.01019811392 4.25405006e-19 0.02227667362)
(0.01056053411 4.31536222e-19 0.02227555007)
(0.01092536658 4.29675179e-19 0.02227108119)
(0.01129458414 3.991033597e-19 0.02226227576)
(0.01167067059 3.681503001e-19 0.02224781823)
(0.01205674999 3.241997064e-19 0.02222587879)
(0.0124567568 2.499527615e-19 0.02219372807)
(0.01287569435 1.389007568e-18 0.02214754539)
(0.0133202587 -4.087825516e-18 0.02207649539)
(0.01379391205 -5.445881023e-18 0.0220070247)
(0.01434982938 -4.538150851e-18 0.02156807982)
(0.01470068165 -2.474067056e-18 0.02314238252)
(0.01491788723 -2.706172713e-19 0.01257301742)
(0.007448460831 5.618812948e-19 0.05728547722)
(0.0003806524105 3.637477885e-19 0.02170726753)
(0.0006526842312 3.679851842e-19 0.02170186063)
(0.001024156506 -1.490949593e-17 0.02170040515)
(0.001410386565 -1.195283201e-18 0.0217000655)
(0.001801551208 5.823699236e-19 0.02170025793)
(0.002194880489 4.527867558e-19 0.02170084455)
(0.002589240025 3.935988255e-19 0.0217018089)
(0.002984031184 9.585160759e-19 0.02170318628)
(0.003378859998 -1.291874525e-17 0.021705035)
(0.003773413174 -4.40658556e-18 0.0217074245)
(0.004167405715 1.221128404e-17 0.02171042683)
(0.004560557205 1.774425363e-17 0.02171411003)
(0.004952581944 5.881902338e-18 0.02171853246)
(0.005343186781 5.98438237e-19 0.02172373708)
(0.005732073837 7.745278567e-20 0.02172974605)
(0.006118946932 3.282492636e-19 0.02173655525)
(0.006503520984 4.030949316e-19 0.02174412873)
(0.006885533988 3.923984034e-19 0.02175239321)
(0.007264761365 3.980751395e-19 0.0217612326)
(0.007641032509 4.032691211e-19 0.02177048246)
(0.008014249406 4.288295912e-19 0.02177992437)
(0.008384407197 4.069298747e-19 0.02178928007)
(0.008751616727 4.22848252e-19 0.02179820515)
(0.009116128957 4.209361413e-19 0.02180628219)
(0.009478361073 4.178403972e-19 0.02181301097)
(0.009838924788 4.319155108e-19 0.02181779612)
(0.01019865696 4.316780857e-19 0.02181992936)
(0.010558652 4.465895356e-19 0.02181855857)
(0.01092029879 4.10835245e-19 0.02181264238)
(0.0112853189 3.813010399e-19 0.02180088324)
(0.0116557968 3.669667886e-19 0.02178160942)
(0.01203419065 3.368355427e-19 0.02175257966)
(0.01242328321 1.733044553e-19 0.021710614)
(0.01282601883 1.4460681e-18 0.02165140234)
(0.01324487136 -4.172132521e-18 0.02156366913)
(0.01367924101 -5.553121562e-18 0.02147833346)
(0.0141227981 -4.522693671e-18 0.02099075019)
(0.01444110682 -2.299501724e-18 0.02272710994)
(0.01421432952 -1.378776727e-19 0.01170594866)
(0.006862066129 5.97645432e-19 0.06845346368)
(0.0003808470968 3.66466505e-19 0.02116705111)
(0.000653016662 3.774442686e-19 0.02116174763)
(0.00102463454 -1.49151338e-17 0.02116026162)
(0.001410988903 -1.19382745e-18 0.0211598904)
(0.001802296078 5.85995774e-19 0.02116009633)
(0.002195811181 4.53240145e-19 0.02116075759)
(0.002590413632 3.939677175e-19 0.02116187444)
(0.002985511894 9.563461378e-19 0.0211635019)
(0.003380714663 -1.292855789e-17 0.02116572192)
(0.003775707975 -4.391514342e-18 0.02116862919)
(0.004170202742 1.223243114e-17 0.02117232113)
(0.004563910912 1.775227827e-17 0.02117688998)
(0.004956535473 5.861952172e-18 0.02118241552)
(0.005347768117 5.846891039e-19 0.02118895794)
(0.005737291842 7.919690371e-20 0.0211965507)
(0.006124787251 3.239168454e-19 0.02120519354)
(0.006509941871 4.001899157e-19 0.02121484523)
(0.006892462079 4.016447164e-19 0.02122541657)
(0.007272087398 3.979869466e-19 0.02123676322)
(0.007648606945 4.001709133e-19 0.02124867873)
(0.008021877813 4.068256823e-19 0.02126088744)
(0.008391845191 4.062317464e-19 0.02127303723)
(0.008758564115 4.226630436e-19 0.02128469185)
(0.009122222491 4.27995071e-19 0.02129532301)
(0.009483164623 4.213939652e-19 0.02130429974)
(0.009841915161 4.330989095e-19 0.02131087481)
(0.01019920294 4.302398488e-19 0.02131416616)
(0.01055598111 4.429154781e-19 0.02131312815)
(0.01091344204 4.062660493e-19 0.02130650525)
(0.01127302354 3.603555461e-19 0.02129276941)
(0.01163638668 3.259947829e-19 0.02127002227)
(0.01200533249 3.643128289e-19 0.02123583714)
(0.01238159276 1.697600452e-19 0.02118698138)
(0.01276641266 1.426022791e-18 0.02111936065)
(0.01315914902 -4.282320087e-18 0.02102303343)
(0.01355859332 -5.63374807e-18 0.02093014582)
(0.01393060328 -4.479754744e-18 0.02046099088)
(0.01416829047 -2.087201116e-18 0.02219510629)
(0.01362549451 -6.475016815e-20 0.01127240691)
(0.006433187428 6.198985225e-19 0.0790195689)
(0.0003810031502 3.659767033e-19 0.02062957737)
(0.0006532918343 3.719082294e-19 0.0206244199)
(0.001025054092 -1.492047516e-17 0.02062293993)
(0.001411555972 -1.181420847e-18 0.02062253997)
(0.001803042933 5.795670084e-19 0.02062273347)
(0.002196792652 4.513453098e-19 0.02062342442)
(0.002591699808 3.950491717e-19 0.02062463629)
(0.002987182115 9.52842127e-19 0.02062644896)
(0.0033828526 -1.295135945e-17 0.02062897163)
(0.003778397261 -4.366409162e-18 0.02063232771)
(0.00417352259 1.225464115e-17 0.02063664355)
(0.004567931544 1.77366046e-17 0.02064203905)
(0.004961313372 5.826329231e-18 0.02064861911)
(0.005353341095 5.798751716e-19 0.02065646489)
(0.005743673919 7.675484635e-20 0.02066562505)
(0.006131963428 3.210024771e-19 0.02067610708)
(0.006517862806 3.992317369e-19 0.02068786854)
(0.006901038718 3.965935108e-19 0.02070080829)
(0.007281185572 4.030532756e-19 0.02071475786)
(0.007658041874 4.01807551e-19 0.02072947294)
(0.008031408452 4.170300578e-19 0.02074462501)
(0.008401168191 4.190920266e-19 0.0207597929)
(0.008767306917 4.346301284e-19 0.02077445403)
(0.00912993524 4.298404991e-19 0.02078797592)
(0.009489309711 4.221164316e-19 0.02079960591)
(0.00984585255 4.295018032e-19 0.02080845766)
(0.01020016892 4.30556345e-19 0.02081349421)
(0.01055305827 4.350012187e-19 0.02081350388)
(0.01090551202 3.750239696e-19 0.02080706314)
(0.01125869288 3.40812951e-19 0.0207924843)
(0.01161388279 3.497470172e-19 0.02076774775)
(0.0119723619 3.742900208e-19 0.02073040514)
(0.01233516417 1.610968093e-19 0.02067741659)
(0.0127025817 1.412057877e-18 0.02060530619)
(0.01307244822 -4.328654761e-18 0.02050644609)
(0.01344418049 -5.6765471e-18 0.02041027274)
(0.01377283268 -4.442529562e-18 0.01999153823)
(0.0139406042 -1.972518365e-18 0.02162303442)
(0.01308946003 7.462637082e-20 0.01120481604)
(0.006039819702 6.320951634e-19 0.08917766661)
(0.0003811250396 3.670136023e-19 0.02009169498)
(0.00065351535 3.783639653e-19 0.02008671527)
(0.001025412564 -1.492610254e-17 0.02008524995)
(0.001412070761 -1.166678028e-18 0.0200848041)
(0.001803762032 5.801710295e-19 0.02008494386)
(0.002197785821 4.497017932e-19 0.02008560447)
(0.002593053282 3.938707924e-19 0.02008683786)
(0.002988993125 9.48516786e-19 0.0200887534)
(0.003385224136 -1.297207411e-17 0.02009149175)
(0.003781432914 -4.33672896e-18 0.0200952091)
(0.004177321262 1.231950319e-17 0.02010006491)
(0.004572581899 1.774265516e-17 0.02010621114)
(0.004966888005 5.792149876e-18 0.02011378231)
(0.005359890486 5.629450738e-19 0.0201228852)
(0.005751220193 7.520148783e-20 0.02013358846)
(0.00614049394 3.217083956e-19 0.02014591229)
(0.006527323667 4.034856309e-19 0.02015981792)
(0.006911328285 3.999007146e-19 0.0201751973)
(0.00729214794 4.06770249e-19 0.02019186279)
(0.007669460396 4.030328239e-19 0.02020953733)
(0.008042999175 4.181521111e-19 0.02022784467)
(0.008412573069 4.157416591e-19 0.02024630008)
(0.008778086386 4.197672102e-19 0.02026430092)
(0.009139559909 4.336866598e-19 0.02028111748)
(0.009497150392 4.256957082e-19 0.02029588458)
(0.009851167055 4.313019193e-19 0.02030758902)
(0.01020208399 4.291348191e-19 0.0203150563)
(0.01055054435 4.211606329e-19 0.02031693271)
(0.01089735065 3.743703698e-19 0.02031166112)
(0.01124342989 3.533897385e-19 0.02029744722)
(0.01158976645 3.485879398e-19 0.02027221876)
(0.01193729625 3.496403242e-19 0.02023357694)
(0.01228668946 1.547570137e-19 0.02017874958)
(0.01263801513 1.462921911e-18 0.02010489833)
(0.01298933234 -4.435589257e-18 0.02000677794)
(0.01334197305 -5.782763653e-18 0.01990853904)
(0.01364793128 -4.388882656e-18 0.01955252458)
(0.01391492946 -1.911395747e-18 0.02097531592)
(0.01286897274 1.294869052e-19 0.01147461198)
(0.005784615896 6.677734494e-19 0.09897148983)
(0.0003812094106 3.671242042e-19 0.01955364752)
(0.0006536800732 3.674971938e-19 0.01954886876)
(0.001025693475 -1.493250387e-17 0.01954740852)
(0.001412504096 -1.160385897e-18 0.0195468821)
(0.001804412088 5.810880748e-19 0.01954691043)
(0.002198739624 4.49889813e-19 0.01954746378)
(0.002594415961 3.959673009e-19 0.01954862693)
(0.002990882611 9.416464254e-19 0.01955054339)
(0.003387765572 -1.299471652e-17 0.01955338979)
(0.003784752805 -4.307990421e-18 0.01955735978)
(0.004181541293 1.237043666e-17 0.01956265085)
(0.004577812411 1.775976141e-17 0.01956945222)
(0.004973221097 5.753264228e-18 0.01957793338)
(0.005367392826 5.497566074e-19 0.01958823233)
(0.005759925604 7.673020744e-20 0.01960044347)
(0.006150395815 3.252949452e-19 0.01961460556)
(0.006538367301 4.012726441e-19 0.01963068944)
(0.006923403226 4.045733979e-19 0.01964858605)
(0.007305080418 4.060777726e-19 0.0196680945)
(0.007683005881 4.065368329e-19 0.01968891077)
(0.008056835057 4.263670828e-19 0.0197106168)
(0.008426291371 4.235665977e-19 0.01973267027)
(0.008791186304 4.301983315e-19 0.01975439496)
(0.009151439656 4.331045376e-19 0.01977497091)
(0.009507098613 4.230633423e-19 0.01979342845)
(0.009858352624 4.283887032e-19 0.01980863807)
(0.01020554279 4.221476231e-19 0.01981930127)
(0.01054916267 4.043243628e-19 0.01982394049)
(0.0108898446 3.578853944e-19 0.01982088703)
(0.01122832577 3.220132841e-19 0.0198082674)
(0.01156538729 3.534218533e-19 0.01978398527)
(0.01190175569 3.342795617e-19 0.01974570592)
(0.01223794301 1.556582474e-19 0.01969089614)
(0.01257414215 1.436916161e-18 0.01961710066)
(0.01290952271 -4.495797995e-18 0.01952072058)
(0.01324959528 -5.858223878e-18 0.01941814062)
(0.01354825918 -4.355259064e-18 0.01912613383)
(0.01371386668 -1.754979181e-18 0.02023763746)
(0.01231662167 2.313606573e-19 0.01206558287)
(0.005389220242 6.401777198e-19 0.1084358983)
(0.0003812476559 3.657284801e-19 0.01901548443)
(0.0006537703451 3.659331739e-19 0.01901092278)
(0.001025869739 -1.494344181e-17 0.01900944419)
(0.001412815763 -1.149027933e-18 0.01900878647)
(0.00180494031 5.836632909e-19 0.01900862849)
(0.002199590656 4.506269455e-19 0.01900897895)
(0.002595716454 3.964857383e-19 0.01900995969)
(0.002992774153 9.354076681e-19 0.01901175299)
(0.003390398645 -1.301634352e-17 0.01901457647)
(0.003788280215 -4.264533925e-18 0.01901866648)
(0.004186111126 1.240442585e-17 0.0190242642)
(0.004583560526 1.776747239e-17 0.01903160211)
(0.004980263122 5.710939865e-18 0.01904089095)
(0.005375815794 5.278887061e-19 0.01905230648)
(0.005769779332 8.078127632e-20 0.01906597559)
(0.006161684096 3.371036197e-19 0.01908196245)
(0.006551039025 4.088171384e-19 0.01910025444)
(0.006937343572 4.073022039e-19 0.01912074833)
(0.007320102215 3.99976717e-19 0.01914323675)
(0.007698841244 4.134098742e-19 0.01916739535)
(0.008073127395 4.331495078e-19 0.01919277065)
(0.008442587761 4.265372402e-19 0.01921876909)
(0.008806930287 4.33512614e-19 0.01924464709)
(0.009165963688 4.32387085e-19 0.01926950139)
(0.009519617273 4.228549584e-19 0.019292264)
(0.009867956092 4.270748565e-19 0.0193116969)
(0.01021118932 4.109433945e-19 0.01932638647)
(0.01054967078 3.944566977e-19 0.01933474178)
(0.01088388613 3.598084034e-19 0.01933499385)
(0.01121442422 3.29221022e-19 0.01932519664)
(0.01154193254 3.195535388e-19 0.01930322506)
(0.01186702914 3.72583226e-19 0.01926680162)
(0.01219018172 2.055698378e-19 0.01921356315)
(0.01251169636 1.508607561e-18 0.01914120745)
(0.01283125294 -4.612895118e-18 0.01904705715)
(0.01315618427 -5.962716541e-18 0.01893746319)
(0.01344727531 -4.296321905e-18 0.01870354316)
(0.01355055019 -1.536249618e-18 0.01943558289)
(0.01187510423 3.133258776e-19 0.01299117344)
(0.005066349682 6.225705709e-19 0.1175934085)
(0.0003812267786 3.604763719e-19 0.01847728251)
(0.0006537634354 3.559912894e-19 0.01847294798)
(0.001025904703 -1.495414256e-17 0.01847141557)
(0.001412954381 -1.126996584e-18 0.01847056027)
(0.001805281404 5.857855995e-19 0.0184701229)
(0.002200261697 4.518765299e-19 0.01847015427)
(0.002596868313 3.991532585e-19 0.01847081757)
(0.002994575254 9.297995329e-19 0.01847233876)
(0.003393028352 -1.304889584e-17 0.01847498189)
(0.003791921505 -4.221066647e-18 0.01847903195)
(0.004190942651 1.246441487e-17 0.01848478014)
(0.004589748099 1.77733288e-17 0.01849250909)
(0.00498795057 5.661355818e-18 0.01850247802)
(0.005385115368 5.137925966e-19 0.01851490796)
(0.00578076184 9.01348188e-20 0.01852996606)
(0.006174368808 3.438753099e-19 0.01854774979)
(0.00656538353 4.135227464e-19 0.01856827097)
(0.006953233752 4.126869429e-19 0.01859144008)
(0.007337342517 4.090979743e-19 0.01861705091)
(0.007717145401 4.254822367e-19 0.01864476609)
(0.008092109775 4.433237131e-19 0.01867410372)
(0.008461755498 4.352977264e-19 0.01870442547)
(0.008825676314 4.358507731e-19 0.01873492642)
(0.009183560456 4.249969505e-19 0.01876462621)
(0.009535211539 4.203360792e-19 0.01879236306)
(0.009880566061 4.221967422e-19 0.01881679483)
(0.0102197028 3.957073711e-19 0.01883639725)
(0.01055284496 3.875617699e-19 0.01884946924)
(0.01088035287 3.588531101e-19 0.01885414151)
(0.01120270564 3.427025102e-19 0.01884838776)
(0.01152046077 3.366892152e-19 0.01883003975)
(0.01183418188 3.760157317e-19 0.01879684994)
(0.01214436567 2.065027634e-19 0.01874654932)
(0.01245143493 1.514365315e-18 0.01867689323)
(0.01275502708 -4.691970243e-18 0.0185860514)
(0.01306196815 -6.036366205e-18 0.01846984749)
(0.01333166846 -4.217151502e-18 0.01829110419)
(0.01332424598 -1.420802568e-18 0.01860498023)
(0.01141338387 3.771689756e-19 0.0141850067)
(0.004771578141 6.082260707e-19 0.1264725345)
(0.0003811298179 3.511907714e-19 0.01793913909)
(0.0006536301119 3.444779289e-19 0.01793503589)
(0.001025752376 -1.496533548e-17 0.01793340263)
(0.001412856984 -1.108047859e-18 0.01793226756)
(0.001805356526 5.821279395e-19 0.01793143831)
(0.002200660179 4.52348849e-19 0.01793101173)
(0.002597768162 4.032141263e-19 0.01793119705)
(0.002996175197 9.229014288e-19 0.01793226916)
(0.003395540573 -1.308792468e-17 0.01793454453)
(0.00379556354 -4.16913692e-18 0.01793836343)
(0.004195928462 1.2551021e-17 0.0179440742)
(0.004596278481 1.777072416e-17 0.0179520173)
(0.00499620289 5.607294058e-18 0.01796250875)
(0.005395232676 4.996869658e-19 0.01797582332)
(0.005792841641 9.831798344e-20 0.01799217729)
(0.006188451641 3.473653266e-19 0.0180117104)
(0.006581441486 4.191116356e-19 0.01803446794)
(0.006971159144 4.150016733e-19 0.01806038294)
(0.007356936978 4.380166616e-19 0.0180892589)
(0.007738109652 4.344701397e-19 0.01812075357)
(0.008114034273 4.355651305e-19 0.01815436408)
(0.00848411226 4.356038596e-19 0.01818941406)
(0.008847812176 4.344815694e-19 0.01822504296)
(0.009204692359 3.89878659e-19 0.01826019816)
(0.009554422666 4.164177265e-19 0.01829362798)
(0.009896805754 4.151616263e-19 0.01832388682)
(0.01023178994 3.801084596e-19 0.0183493404)
(0.01055947499 3.711805428e-19 0.01836817386)
(0.01088011303 3.536650398e-19 0.01837840858)
(0.01119409951 3.600475538e-19 0.01837792018)
(0.0115019325 3.642464346e-19 0.01836448441)
(0.01180415592 3.716415006e-19 0.01833584434)
(0.01210132277 2.45268735e-19 0.01828975201)
(0.01239400667 1.493426709e-18 0.01822396041)
(0.01268223229 -4.743722074e-18 0.01813747634)
(0.01297170821 -6.1199723e-18 0.01801696459)
(0.0132180401 -4.117948037e-18 0.01789791756)
(0.01309284763 -1.335058592e-18 0.01779932465)
(0.01099559232 4.330192087e-19 0.01554800776)
(0.004524483711 5.887058053e-19 0.1350979412)
(0.0003809359412 3.67932862e-19 0.01740117832)
(0.0006533347034 3.540425704e-19 0.01739730484)
(0.00102535717 -1.497818351e-17 0.01739551192)
(0.001412448235 -1.09240095e-18 0.0173939982)
(0.001805071988 5.848121981e-19 0.0173926435)
(0.002200676454 4.464878694e-19 0.0173915951)
(0.002598293592 3.971082734e-19 0.01739111336)
(0.002997442636 9.055561446e-19 0.01739152793)
(0.003397799425 -1.31252463e-17 0.01739321422)
(0.003799070774 -4.12184201e-18 0.01739657513)
(0.004200938667 1.259419647e-17 0.01740202412)
(0.004603033143 1.777146225e-17 0.01740996807)
(0.00500491896 5.526567818e-18 0.01742078904)
(0.005406090318 4.672297572e-19 0.01743482529)
(0.005805971546 9.051612458e-20 0.01745235211)
(0.006203922171 3.388347909e-19 0.01747356172)
(0.006599245738 4.037114666e-19 0.01749854298)
(0.006991202251 4.042241652e-19 0.01752726146)
(0.007379023912 4.125934093e-19 0.01755953993)
(0.007761933872 4.266585487e-19 0.01759504019)
(0.008139167593 4.352650993e-19 0.01763324649)
(0.008509996289 4.155975952e-19 0.01767345132)
(0.008873751703 4.135422583e-19 0.01771474411)
(0.009229851622 4.135861103e-19 0.01775600336)
(0.009577823731 4.003251451e-19 0.01779589072)
(0.009917329429 3.946554111e-19 0.0178328557)
(0.0102481836 3.584479183e-19 0.01786514986)
(0.01057036718 3.638581125e-19 0.01789083558)
(0.01088403625 3.444748851e-19 0.01790780849)
(0.01118951479 3.169915761e-19 0.01791382848)
(0.01148725983 2.979259475e-19 0.01790659418)
(0.01177783036 3.438718916e-19 0.01788379257)
(0.01206185279 1.934198879e-19 0.01784314739)
(0.01234000496 1.542528137e-18 0.01778236508)
(0.01261250804 -4.912053654e-18 0.01770109004)
(0.012884121 -6.140765701e-18 0.01757883017)
(0.01311141588 -4.120897319e-18 0.01752235018)
(0.01288890365 -1.215821638e-18 0.01703330621)
(0.01061880637 4.552947171e-19 0.01703147136)
(0.00429660721 6.144018268e-19 0.1434920345)
(0.0003806203423 3.646046663e-19 0.01686355668)
(0.0006528348535 3.42296386e-19 0.01685990526)
(0.001024653355 -1.499433548e-17 0.01685788146)
(0.001411639372 -1.065375372e-18 0.01685587219)
(0.001804317764 5.821114665e-19 0.01685383541)
(0.002200181856 4.438021703e-19 0.01685197368)
(0.002598300798 3.959775392e-19 0.01685060395)
(0.00299822289 8.926038369e-19 0.01685011711)
(0.003399644193 -1.317345051e-17 0.01685095466)
(0.00380228187 -4.064040422e-18 0.01685359021)
(0.00420581729 1.266917689e-17 0.01685851126)
(0.004609867903 1.77774773e-17 0.01686620062)
(0.005013973117 5.450632679e-18 0.01687711668)
(0.005417588232 4.421185112e-19 0.01689167214)
(0.005820084409 9.288964667e-20 0.01691021244)
(0.006220753531 3.343342761e-19 0.01693299365)
(0.006618817018 4.013016715e-19 0.01696015965)
(0.007013438497 4.036229873e-19 0.01699171969)
(0.00740374016 4.149823262e-19 0.0170275265)
(0.00778882253 4.263684046e-19 0.0170672558)
(0.008167787313 4.32439167e-19 0.01711038772)
(0.008539762811 4.15003216e-19 0.01715619095)
(0.008903931283 4.103893832e-19 0.01720371036)
(0.009259557732 4.220907978e-19 0.01725175827)
(0.009606017501 4.057451384e-19 0.01729891104)
(0.009942821344 3.889833583e-19 0.01734351235)
(0.01026964507 3.559729606e-19 0.01738368934)
(0.01058635182 3.560284461e-19 0.01741736887)
(0.01089300349 3.391853442e-19 0.01744230183)
(0.01118985278 3.23443489e-19 0.01745611786)
(0.01147733496 3.1146775e-19 0.01745639665)
(0.01175606137 3.428243897e-19 0.01744071818)
(0.01202675983 2.467967896e-19 0.01740674917)
(0.01229022181 1.557924964e-18 0.01735214147)
(0.01254680353 -4.980441848e-18 0.01727709568)
(0.0128004333 -6.19674054e-18 0.01715545734)
(0.01301076667 -4.037543019e-18 0.01715990204)
(0.0126978787 -1.119883802e-18 0.0162922641)
(0.01027048257 5.052707397e-19 0.01862961702)
(0.004087950918 5.876197433e-19 0.15167487)
(0.000380153995 3.681365291e-19 0.01632646875)
(0.0006520810547 3.309219587e-19 0.01632302526)
(0.001023564223 -1.501173507e-17 0.01632068598)
(0.001410326969 -1.038946333e-18 0.01631804472)
(0.00180296571 5.791862123e-19 0.01631514385)
(0.002199026501 4.418388679e-19 0.01631224661)
(0.002597622001 3.958785131e-19 0.01630973247)
(0.002998334944 8.787067824e-19 0.01630806062)
(0.003400885973 -1.322558251e-17 0.01630774651)
(0.003805006068 -3.998422131e-18 0.01630934334)
(0.004210378316 1.27774339e-17 0.0163134225)
(0.004616608613 1.776594742e-17 0.01632055336)
(0.005023210648 5.368185097e-18 0.01633128191)
(0.005429599043 4.252589627e-19 0.01634610746)
(0.005835088368 9.673173731e-20 0.01636545823)
(0.006238897624 3.388788204e-19 0.0163896668)
(0.006640159158 3.99927054e-19 0.01641894487)
(0.00703793155 4.065641985e-19 0.01645335786)
(0.007431216655 3.93785049e-19 0.01649280043)
(0.007818980551 3.98517626e-19 0.01653697322)
(0.008200178118 4.183264395e-19 0.01658536189)
(0.008573780821 4.149832744e-19 0.0166372192)
(0.008938807283 4.016477787e-19 0.01669155087)
(0.009294355902 4.424512819e-19 0.01674710572)
(0.009639635562 4.146556284e-19 0.01680237505)
(0.009973995751 3.797208906e-19 0.01685559457)
(0.01029696456 3.556413716e-19 0.01690475379)
(0.01060828038 3.281294569e-19 0.0169476281)
(0.01090790195 3.496654563e-19 0.01698180881)
(0.01119601749 3.32994109e-19 0.01700476683)
(0.01147306051 3.432464286e-19 0.01701391226)
(0.01173970558 3.538355788e-19 0.01700666875)
(0.01199682673 2.794342651e-19 0.0169805978)
(0.01224543229 1.513361547e-18 0.01693327886)
(0.0124861997 -5.038817205e-18 0.0168653945)
(0.01272245757 -6.268832764e-18 0.01674643681)
(0.01291801745 -3.950498931e-18 0.01680786508)
(0.01252506274 -1.057463889e-18 0.0155694123)
(0.009950412496 6.526627547e-19 0.0203340501)
(0.003894038139 5.649991631e-19 0.1596619184)
(0.0003795033056 3.708469006e-19 0.0157901535)
(0.0006510160287 3.314843306e-19 0.01578689678)
(0.00102200107 -1.502386889e-17 0.01578414284)
(0.001408391453 -1.009281185e-18 0.0157807117)
(0.001800867601 5.806654549e-19 0.01577673678)
(0.002197036873 4.427532107e-19 0.01577254783)
(0.002596062553 4.002067519e-19 0.01576859333)
(0.002997568081 8.702328967e-19 0.0157654083)
(0.00340130394 -1.327775903e-17 0.01576359098)
(0.003807019028 -3.91881121e-18 0.01576378373)
(0.00421440116 1.285687013e-17 0.01576665264)
(0.004623046407 1.777959336e-17 0.01577286548)
(0.005032442861 5.292846441e-18 0.01578306828)
(0.005441962941 4.036756329e-19 0.01579786031)
(0.005850861568 1.140744133e-19 0.01581776673)
(0.006258279814 3.568983502e-19 0.01584321087)
(0.006663253846 4.121082968e-19 0.01587448645)
(0.007064728233 4.084113565e-19 0.01591172916)
(0.007461573622 4.209600115e-19 0.01595488894)
(0.007852608976 4.293787644e-19 0.01600370372)
(0.008236628088 4.319657251e-19 0.01605767548)
(0.008612430213 4.222087181e-19 0.01611604965)
(0.008978854378 4.200744715e-19 0.01617779855)
(0.009334815271 4.159238877e-19 0.01624161074)
(0.009679338369 4.011547072e-19 0.01630589249)
(0.01001159928 3.80750979e-19 0.01636876496)
(0.0103309636 3.629307224e-19 0.01642807111)
(0.01063702695 3.678153828e-19 0.01648141564)
(0.01092964182 3.450385576e-19 0.01652621023)
(0.01120893974 3.28948699e-19 0.01655972536)
(0.01147535447 3.352749037e-19 0.016579158)
(0.0117296265 3.701150391e-19 0.01658172423)
(0.01197279817 2.367966327e-19 0.01656479739)
(0.01220618597 1.570121862e-18 0.01652581189)
(0.01243107591 -5.163251517e-18 0.01646572746)
(0.01265124496 -6.308936134e-18 0.01635055219)
(0.0128365503 -3.913214905e-18 0.01646265535)
(0.01237615318 -9.252745505e-19 0.01485679471)
(0.009656217502 5.848976569e-19 0.02214692451)
(0.00370946506 5.413592907e-19 0.1674649232)
(0.0003786296868 3.699589336e-19 0.01525490102)
(0.0006495739902 3.212781282e-19 0.01525180223)
(0.001019862009 -1.504447072e-17 0.01524851851)
(0.001405695431 -9.801534449e-19 0.01524411602)
(0.001797852974 5.777012889e-19 0.01523882621)
(0.00219401307 4.427853851e-19 0.01523305163)
(0.002593397698 4.018122821e-19 0.01522731685)
(0.002995678247 8.545435134e-19 0.01522224072)
(0.003400641199 -1.333988489e-17 0.01521851402)
(0.003808058279 -3.839721281e-18 0.01521687869)
(0.004217625827 1.296048981e-17 0.01521810734)
(0.004628932463 1.77754106e-17 0.01522297908)
(0.005041441435 5.198456353e-18 0.01523225396)
(0.005454481915 3.890616693e-19 0.01524664571)
(0.005867246349 1.20192871e-19 0.01526679208)
(0.006278793045 3.556437726e-19 0.01529322325)
(0.006688054862 4.125230574e-19 0.01532633085)
(0.007093853006 4.116454854e-19 0.01536633653)
(0.007494915433 4.208155358e-19 0.01541326059)
(0.007889900429 4.012410144e-19 0.01546689217)
(0.008277425192 4.169496721e-19 0.01552676185)
(0.008656099467 4.184557197e-19 0.01559211745)
(0.009024564008 4.075712021e-19 0.0156619044)
(0.009381528851 4.025801662e-19 0.01573475637)
(0.009725817754 4.032946052e-19 0.01580899124)