/*--------------------------------*- C++ -*----------------------------------*\
| =========                 |                                                 |
| \\      /  F ield         | OpenFOAM: The Open Source CFD Toolbox           |
|  \\    /   O peration     | Version:  v1912                                 |
|   \\  /    A nd           | Website:  www.openfoam.com                      |
|    \\/     M anipulation  |                                                 |
\*---------------------------------------------------------------------------*/
FoamFile
{
    version     2.0;
    format      ascii;
    class       volVectorField;
    location    "0.6";
    object      U.liquid_0;
}
// * * * * * * * * * * * * * * * * * * * * * * * * * * * * * * * * * * * * * //

dimensions      [0 1 -1 0 0 0 0];


internalField   nonuniform List<vector> 
4800
(
(0.0003588646059 3.735948978e-19 -0.0002534868856)
(0.0006190409375 3.635927664e-19 -0.0002560893942)
(0.0009743016314 -1.421918664e-17 -0.0002564924949)
(0.001343381054 -1.078408744e-18 -0.0002565655908)
(0.001716873857 5.541581944e-19 -0.0002565223237)
(0.002092145483 4.30187517e-19 -0.0002564025283)
(0.002468110398 3.749973507e-19 -0.000256216146)
(0.002844185136 9.186762487e-19 -0.0002559607572)
(0.00321997644 -1.239426628e-17 -0.0002556295847)
(0.003595167108 -4.078106159e-18 -0.000255213939)
(0.003969467776 1.176954616e-17 -0.0002547045625)
(0.004342595396 1.688145971e-17 -0.0002540925558)
(0.004714264626 5.414779529e-18 -0.0002533703741)
(0.005084186518 5.153687901e-19 -0.000252532626)
(0.005452071754 8.480539817e-20 -0.0002515768342)
(0.00581763722 3.237143459e-19 -0.000250504202)
(0.006180615329 3.933288906e-19 -0.0002493203746)
(0.006540765767 4.051983164e-19 -0.000248036207)
(0.006897889488 3.960063833e-19 -0.0002466685295)
(0.007251844849 3.731537323e-19 -0.0002452409199)
(0.007602565874 3.751784068e-19 -0.0002437845052)
(0.007950082719 3.793580754e-19 -0.0002423388106)
(0.0082945445 3.778870349e-19 -0.0002409527026)
(0.008636244886 3.686694893e-19 -0.0002396855255)
(0.008975651285 3.885502051e-19 -0.0002386086489)
(0.009313439398 3.801057889e-19 -0.0002378078447)
(0.009650535953 3.842337964e-19 -0.0002373868581)
(0.009988172332 4.192668088e-19 -0.0002374717638)
(0.01032795929 4.223969032e-19 -0.0002382216237)
(0.01067199897 4.133206839e-19 -0.0002398443557)
(0.01102305643 4.127198935e-19 -0.0002426231979)
(0.01138483958 3.968947576e-19 -0.0002469669268)
(0.01176252558 2.468671592e-19 -0.000253532151)
(0.01216351723 1.368546491e-18 -0.0002632685488)
(0.01260129959 -4.22511612e-18 -0.0002794852647)
(0.01308063509 -5.286079873e-18 -0.000293271749)
(0.01371540896 -4.107955724e-18 -0.0003872170641)
(0.01384888866 -2.231006871e-18 3.894632295e-05)
(0.0184441402 -5.408929963e-19 -0.003394185032)
(0.01143072369 4.030453871e-19 0.007793945315)
(0.0003781949997 3.887137954e-19 -0.0007741150229)
(0.000648582734 3.742572861e-19 -0.000779451157)
(0.001018084098 -1.486620019e-17 -0.0007804885067)
(0.001402440794 -1.19991442e-18 -0.0007807032598)
(0.001791697307 5.834413209e-19 -0.000780610713)
(0.0021830608 4.57084299e-19 -0.000780314521)
(0.002575401276 3.941088667e-19 -0.0007798380284)
(0.002968127925 9.611401937e-19 -0.0007791705787)
(0.003360857036 -1.2869208e-17 -0.0007782914236)
(0.003753289568 -4.422504135e-18 -0.0007771734181)
(0.004145157084 1.213389456e-17 -0.0007757876897)
(0.004536198425 1.767708448e-17 -0.00077410681)
(0.004926150438 5.900148693e-18 -0.0007721074704)
(0.0053147461 6.141886045e-19 -0.0007697728787)
(0.005701717505 7.541608637e-20 -0.0007670950608)
(0.006086802413 3.279947992e-19 -0.0007640771818)
(0.006469753699 4.102044638e-19 -0.0007607358571)
(0.006850351358 4.034609564e-19 -0.000757103485)
(0.007228416879 3.94431446e-19 -0.0007532305746)
(0.007603829856 3.842841607e-19 -0.0007491881011)
(0.007976546849 3.976973796e-19 -0.0007450699367)
(0.008346622558 3.99230639e-19 -0.000740995464)
(0.008714233457 4.066773709e-19 -0.0007371124042)
(0.009079704075 4.047156189e-19 -0.000733600152)
(0.009443536993 4.050706988e-19 -0.0007306745768)
(0.009806447597 4.356971655e-19 -0.0007285945894)
(0.01016940537 4.497633333e-19 -0.0007276722753)
(0.01053368895 4.273494229e-19 -0.0007282883992)
(0.01090095856 4.226435427e-19 -0.0007309196098)
(0.01127335391 4.211157611e-19 -0.0007361824609)
(0.01165364346 4.246176413e-19 -0.0007449105743)
(0.01204546078 4.070242093e-19 -0.0007582925388)
(0.01245368085 1.883397665e-19 -0.000778178301)
(0.01288491552 1.417747721e-18 -0.0008071958012)
(0.01334921972 -4.100657432e-18 -0.0008536848335)
(0.01385448102 -5.411173133e-18 -0.0008968333366)
(0.01452983978 -4.598257755e-18 -0.00118693499)
(0.01490901954 -2.466896201e-18 -3.964532737e-05)
(0.0168891168 -5.130041902e-19 -0.008276900728)
(0.009302117766 4.960810641e-19 0.02207977743)
(0.0003788588997 3.633663196e-19 -0.00130886644)
(0.0006495062021 3.779006691e-19 -0.001314317355)
(0.001019195479 -1.487521141e-17 -0.001315680929)
(0.001403672284 -1.199857985e-18 -0.001316011672)
(0.001793092922 5.866908553e-19 -0.001315911894)
(0.002184676142 4.532245019e-19 -0.001315516145)
(0.00257729027 3.942132206e-19 -0.00131484891)
(0.002970343895 9.616161599e-19 -0.001313888267)
(0.003363452671 -1.287691024e-17 -0.001312596242)
(0.003756313963 -4.420962825e-18 -0.001310925235)
(0.004148655288 1.215146512e-17 -0.001308825182)
(0.004540210825 1.769246213e-17 -0.001306248753)
(0.004930711574 5.903227453e-18 -0.001303155518)
(0.005319883239 5.958016622e-19 -0.001299515953)
(0.005707449074 8.034901767e-20 -0.001295315316)
(0.006093136337 3.265054947e-19 -0.001290557539)
(0.006476685669 4.104495791e-19 -0.001285269132)
(0.006857863082 3.888550436e-19 -0.00127950311)
(0.007236474289 3.861657077e-19 -0.001273342911)
(0.007612381274 3.999270033e-19 -0.001266906353)
(0.007985521045 4.215058593e-19 -0.001260349711)
(0.008355926563 4.033763811e-19 -0.001253872067)
(0.008723749916 4.015929618e-19 -0.001247719951)
(0.009089287791 3.953134889e-19 -0.001242192639)
(0.009453009919 4.171842602e-19 -0.001237649981)
(0.009815591235 4.300170635e-19 -0.001234522246)
(0.01017794854 4.254082645e-19 -0.001233325126)
(0.01054128574 4.315390096e-19 -0.00123468633)
(0.01090715096 4.296766088e-19 -0.001239382996)
(0.01127750754 3.991064004e-19 -0.001248403795)
(0.01165482801 3.68153906e-19 -0.001263061081)
(0.01204222247 3.242032212e-19 -0.001285180146)
(0.01244360806 2.499538885e-19 -0.00131748334)
(0.01286396771 1.389010877e-18 -0.001363779965)
(0.01330994558 -4.054361195e-18 -0.001434886723)
(0.01378510379 -5.445878089e-18 -0.001504271801)
(0.01434194147 -4.538194655e-18 -0.001943164183)
(0.01476337465 -2.474144069e-18 -0.0003668755071)
(0.01558214487 -2.692919748e-19 -0.01037527226)
(0.008032752301 5.629448582e-19 0.03422055932)
(0.0003791024467 3.637493403e-19 -0.001844258796)
(0.0006498940665 3.679828377e-19 -0.001849656656)
(0.001019697212 -1.487607103e-17 -0.001851150496)
(0.001404235838 -1.195319189e-18 -0.001851557921)
(0.001793729342 5.823753724e-19 -0.001851459207)
(0.002185423158 4.52791909e-19 -0.001850990861)
(0.002578196231 3.936014122e-19 -0.00185016843)
(0.002971460978 9.585341823e-19 -0.00184895591)
(0.0033648335 -1.288525281e-17 -0.001847294229)
(0.003758009897 -4.406687821e-18 -0.001845113154)
(0.004150714022 1.217774806e-17 -0.001842339752)
(0.004542673903 1.771084624e-17 -0.001838904987)
(0.004933611812 5.882034885e-18 -0.001834749447)
(0.005323242003 5.984682299e-19 -0.001829828948)
(0.005711273411 7.744783249e-20 -0.001824120001)
(0.006097416011 3.282476214e-19 -0.001817625282)
(0.006481390143 4.030972679e-19 -0.00181037915)
(0.00686293843 3.924017483e-19 -0.001802453163)
(0.007241840052 3.980786192e-19 -0.001793961585)
(0.00761792723 4.032721971e-19 -0.001785066912)
(0.007991103788 4.288334287e-19 -0.001775985514)
(0.008361365669 4.069339154e-19 -0.001766993533)
(0.008728823442 4.228510802e-19 -0.001758433203)
(0.009093726664 4.20940345e-19 -0.001750719674)
(0.009456489969 4.178438418e-19 -0.001744350887)
(0.009817721366 4.319193725e-19 -0.001739919854)
(0.01017825306 4.316816548e-19 -0.001738132488)
(0.01053917352 4.46592379e-19 -0.001739838621)
(0.01090186382 4.10836597e-19 -0.001746076685)
(0.01126803647 3.813029419e-19 -0.001758140685)
(0.01163976561 3.669688182e-19 -0.001777698378)
(0.0120194972 3.368381995e-19 -0.001806985459)
(0.01240999994 1.733043883e-19 -0.001849173757)
(0.01281420255 1.446071876e-18 -0.001908560695)
(0.01323456399 -4.138568411e-18 -0.001996401767)
(0.013670499 -5.553119103e-18 -0.002081705189)
(0.01411559814 -4.522740713e-18 -0.002569223745)
(0.01452193539 -2.299584924e-18 -0.0008316998714)
(0.01495385679 -1.371944084e-19 -0.01128400506)
(0.007503113468 5.981494644e-19 0.04519060976)
(0.0003793029598 3.664686407e-19 -0.00237996481)
(0.0006502025992 3.774577956e-19 -0.002385265038)
(0.001020119393 -1.488171084e-17 -0.002386802475)
(0.001404756621 -1.193863599e-18 -0.002387261787)
(0.001794368479 5.859787416e-19 -0.002387177061)
(0.002186224748 4.532452816e-19 -0.002386668546)
(0.002579218002 3.939702416e-19 -0.002385734918)
(0.002972767737 9.563645782e-19 -0.002384320234)
(0.003366492783 -1.28951196e-17 -0.00238234162)
(0.00376008867 -4.391617044e-18 -0.00237970338)
(0.004153275261 1.219890784e-17 -0.002376306938)
(0.004545773066 1.771888463e-17 -0.002372058835)
(0.004937293176 5.862084821e-18 -0.002366877884)
(0.005327534825 5.847189888e-19 -0.002360702369)
(0.005716187958 7.919207085e-20 -0.002353497094)
(0.006102939466 3.239156117e-19 -0.002345260469)
(0.006487482427 4.00192252e-19 -0.002336031643)
(0.006869527961 4.016488984e-19 -0.002325897615)
(0.007248819455 3.979909219e-19 -0.002315000326)
(0.007625148945 4.001745509e-19 -0.002303543713)
(0.007998375435 4.068288736e-19 -0.002291800785)
(0.008368444974 4.062352067e-19 -0.002280120895)
(0.008735412375 4.226668853e-19 -0.002268937481)
(0.009099464186 4.279979384e-19 -0.002258775918)
(0.009460942198 4.213967129e-19 -0.002250264236)
(0.009820367419 4.331021253e-19 -0.002244146678)
(0.01017846396 4.302439183e-19 -0.002241302218)
(0.01053617925 4.429177918e-19 -0.002242773537)
(0.01089469849 4.062691289e-19 -0.002249812836)
(0.01125545088 3.603575502e-19 -0.002263943886)
(0.01162008798 3.259975821e-19 -0.002287060224)
(0.01199040038 3.643173814e-19 -0.002321582533)
(0.0123681088 1.697587701e-19 -0.002370735088)
(0.01275444633 1.426024153e-18 -0.002438600382)
(0.0131487779 -4.248701897e-18 -0.002535103804)
(0.01354984593 -5.633748363e-18 -0.002628058517)
(0.01392374326 -4.479802723e-18 -0.003097254919)
(0.01431268481 -2.087293672e-18 -0.001362342102)
(0.01451999619 -6.426579947e-20 -0.01170485159)
(0.007165254584 6.197338389e-19 0.05562648958)
(0.0003794594504 3.659832609e-19 -0.002915922994)
(0.0006504444916 3.719140159e-19 -0.002921083266)
(0.001020468138 -1.488705714e-17 -0.002922628106)
(0.001405221323 -1.181456688e-18 -0.002923136821)
(0.001794982914 5.795726195e-19 -0.002923092337)
(0.002187044624 4.513502575e-19 -0.002922588959)
(0.002580314146 3.950521649e-19 -0.002921602003)
(0.002974220237 9.528605193e-19 -0.00292005052)
(0.003368386141 -1.291788512e-17 -0.002917824186)
(0.003762507482 -4.366512108e-18 -0.002914798391)
(0.004156299843 1.222112128e-17 -0.002910845421)
(0.004549474889 1.770321377e-17 -0.00290584385)
(0.004941730137 5.826462331e-18 -0.00289968708)
(0.005332746322 5.79905076e-19 -0.002892292085)
(0.005722189771 7.674994596e-20 -0.002883608094)
(0.006109718525 3.210013605e-19 -0.002873625298)
(0.006494991479 3.992345747e-19 -0.002862383616)
(0.006877680193 3.965972062e-19 -0.002849981444)
(0.00725748307 4.030565303e-19 -0.002836584304)
(0.00763414165 4.018105474e-19 -0.002822433372)
(0.008007458768 4.170340103e-19 -0.00280785391)
(0.008377318238 4.190956318e-19 -0.002793263683)
(0.00874370572 4.346346556e-19 -0.002779181776)
(0.009106730514 4.298437782e-19 -0.00276623714)
(0.009466646694 4.221196356e-19 -0.002755178808)
(0.009823872888 4.295045012e-19 -0.00274688951)
(0.01017900957 4.30559791e-19 -0.002742402515)
(0.01053285049 4.350042247e-19 -0.002742925768)
(0.01088638039 3.750263633e-19 -0.002749879041)
(0.01124075415 3.408150776e-19 -0.00276494557)
(0.01159724488 3.497496671e-19 -0.00279013946)
(0.01195712354 3.742926535e-19 -0.002827902666)
(0.01232141515 1.610966846e-19 -0.002881267191)
(0.01269040138 1.412059999e-18 -0.002953699094)
(0.01306193374 -4.29506481e-18 -0.003052814829)
(0.01343532505 -5.676549535e-18 -0.00314916245)
(0.01376614229 -4.44258065e-18 -0.003568086566)
(0.01416329153 -1.972620868e-18 -0.0019360405)
(0.01416431425 7.513508804e-20 -0.01178232085)
(0.006873553906 6.329472501e-19 0.06567329702)
(0.0003795761051 3.670157822e-19 -0.003452074113)
(0.0006506249514 3.78377882e-19 -0.003457062885)
(0.001020740364 -1.489269017e-17 -0.003458606849)
(0.001405612385 -1.166713836e-18 -0.003459182478)
(0.001795542268 5.801766976e-19 -0.003459219913)
(0.002187842955 4.49706892e-19 -0.00345878211)
(0.002581438517 3.938734739e-19 -0.003457815844)
(0.002975768752 9.485350191e-19 -0.003456210483)
(0.003370462761 -1.293860497e-17 -0.003453824104)
(0.003765216933 -4.336832845e-18 -0.003450499124)
(0.004159742351 1.228598839e-17 -0.003446074491)
(0.004553740614 1.770926925e-17 -0.003440396445)
(0.004946893368 5.792284028e-18 -0.003433328483)
(0.00533885945 5.62974465e-19 -0.003424761599)
(0.005729277044 7.519650666e-20 -0.003414624633)
(0.006117769626 3.217073178e-19 -0.003402894647)
(0.006503955048 4.034888462e-19 -0.00338960737)
(0.006887457299 3.999037294e-19 -0.003374867593)
(0.007267920686 4.067744287e-19 -0.003358859398)
(0.007645026147 4.030368157e-19 -0.003341856137)
(0.008018509323 4.181554091e-19 -0.00332423012)
(0.00838818002 4.157452825e-19 -0.003306462012)
(0.00875394243 4.19771518e-19 -0.003289150283)
(0.009115816077 4.336902768e-19 -0.003273020476)
(0.009473955269 4.25698194e-19 -0.003258933485)
(0.009828665648 4.31303946e-19 -0.003247898245)
(0.01018041667 4.291377019e-19 -0.003241085006)
(0.01052984585 4.211634733e-19 -0.003239843165)
(0.0108777492 3.743733533e-19 -0.003245725453)
(0.01122504651 3.533909747e-19 -0.003260521518)
(0.01157271433 3.485890697e-19 -0.003286298202)
(0.01192168017 3.496433147e-19 -0.003325447575)
(0.01227260631 1.547558204e-19 -0.003380734007)
(0.01262555145 1.462924662e-18 -0.003454987395)
(0.01297859476 -4.401964149e-18 -0.00355344423)
(0.01333289896 -5.782767969e-18 -0.003651951318)
(0.01364115548 -4.388936031e-18 -0.004008254001)
(0.01410486515 -1.911503872e-18 -0.00258505887)
(0.0139080591 1.296287639e-19 -0.01150678651)
(0.006614614706 6.676998916e-19 0.07537383201)
(0.0003796494013 3.671275522e-19 -0.003988359404)
(0.0006507366146 3.674947469e-19 -0.003993153648)
(0.001020919303 -1.489911039e-17 -0.003994706575)
(0.0014059003 -1.160422259e-18 -0.003995384115)
(0.001796004874 5.810939279e-19 -0.003995561561)
(0.002188568233 4.498949011e-19 -0.003995266755)
(0.002582532499 3.959700214e-19 -0.003994413493)
(0.002977350351 9.416651006e-19 -0.003992856915)
(0.003372658231 -1.296125158e-17 -0.003990418946)
(0.003768154077 -4.308094767e-18 -0.003986904381)
(0.004163544389 1.233692652e-17 -0.003982113919)
(0.004558519631 1.772638154e-17 -0.00397585628)
(0.00495274344 5.753398263e-18 -0.00396795969)
(0.005345849482 5.497854474e-19 -0.003958283569)
(0.005737443346 7.672507238e-20 -0.003946730601)
(0.006127108333 3.252943732e-19 -0.00393325884)
(0.006514414434 4.01275302e-19 -0.003917893894)
(0.006898930109 4.045076416e-19 -0.003900741001)
(0.007280236548 4.060813537e-19 -0.0038819969)
(0.007657944095 4.065395789e-19 -0.003861961249)
(0.008031710446 4.263700674e-19 -0.003841047511)
(0.008401260137 4.235693781e-19 -0.003819793249)
(0.008766404571 4.302017115e-19 -0.003798869836)
(0.009127062336 4.331075476e-19 -0.003779092349)
(0.009483278196 4.230652945e-19 -0.003761425529)
(0.009835237991 4.283912875e-19 -0.003746994004)
(0.01018327819 4.221501262e-19 -0.00373709145)
(0.01052788677 4.043271707e-19 -0.003733190627)
(0.01086968971 3.578884263e-19 -0.003736955364)
(0.01120941722 3.220151295e-19 -0.00375025411)
(0.01154784336 3.534245169e-19 -0.003775177813)
(0.01188568743 3.342837299e-19 -0.003814054938)
(0.01222345428 1.556611624e-19 -0.003869410719)
(0.01256132616 1.436918067e-18 -0.003943691506)
(0.01289849201 -4.462227648e-18 -0.004040485643)
(0.0132402506 -5.858228934e-18 -0.004143405969)
(0.01354136022 -4.355318693e-18 -0.004435708603)
(0.01405836168 -1.755108247e-18 -0.003323407147)
(0.01366602529 2.322947808e-19 -0.01087366929)
(0.006374959732 6.389479138e-19 0.08475446736)
(0.0003796705788 3.657312928e-19 -0.004524711424)
(0.0006507636067 3.659478829e-19 -0.004529295131)
(0.001020977586 -1.491004091e-17 -0.004530880699)
(0.001406044494 -1.149064213e-18 -0.00453171121)
(0.001796317494 5.836445782e-19 -0.004532103981)
(0.002189156516 4.506321463e-19 -0.004532048342)
(0.002583524064 3.964885215e-19 -0.004531420926)
(0.002978887865 9.354262498e-19 -0.004530038002)
(0.003374893416 -1.298292867e-17 -0.00452768038)
(0.003771241198 -4.264638589e-18 -0.004524109972)
(0.004167633265 1.237092042e-17 -0.004519083606)
(0.004563748113 1.773409716e-17 -0.004512366472)
(0.004959229418 5.71107423e-18 -0.004503745244)
(0.005353682551 5.279172465e-19 -0.004493041227)
(0.005746676191 8.077700579e-20 -0.004480124201)
(0.006137747902 3.371027778e-19 -0.004464926341)
(0.00652641306 4.088206057e-19 -0.004447456202)
(0.006912176674 4.073070489e-19 -0.004427812592)
(0.007294547817 3.999798593e-19 -0.004406198113)
(0.007673056317 4.134134307e-19 -0.004382932095)
(0.008047271315 4.331538182e-19 -0.004358462697)
(0.008416821128 4.26541466e-19 -0.004333378037)
(0.008781413669 4.3351634e-19 -0.004308416095)
(0.009140856453 4.323883928e-19 -0.004284474527)
(0.00949507636 4.228573867e-19 -0.004262615802)
(0.00984413478 4.270768717e-19 -0.00424407237)
(0.01018823619 4.109446015e-19 -0.00423025246)
(0.01052772878 3.944582081e-19 -0.00422274174)
(0.01086309194 3.598119585e-19 -0.004223304)
(0.01119490776 3.292232551e-19 -0.004233880053)
(0.01152381692 3.19554809e-19 -0.004256589435)
(0.01185043124 3.725855211e-19 -0.004293703786)
(0.01217521289 2.055706396e-19 -0.004347579106)
(0.01249845884 1.508611389e-18 -0.004420507974)
(0.01281986982 -4.579254997e-18 -0.004515153366)
(0.01314654945 -5.962723261e-18 -0.004625150758)
(0.01344035506 -4.296379645e-18 -0.004859364753)
(0.01399931241 -1.536393577e-18 -0.004126026092)
(0.01343684161 3.13446889e-19 -0.009924153975)
(0.006160160861 6.224156201e-19 0.09383743299)
(0.0003796264856 3.604792971e-19 -0.005061047255)
(0.000650682976 3.560057198e-19 -0.00506541057)
(0.00102087825 -1.492074739e-17 -0.005067064517)
(0.0014059932 -1.127032203e-18 -0.005068114668)
(0.001796414351 5.857663525e-19 -0.005068816287)
(0.002189529988 4.518818305e-19 -0.005069116605)
(0.002584326048 3.991560574e-19 -0.005068850813)
(0.002980287948 9.298181638e-19 -0.005067791409)
(0.003377072327 -1.301548745e-17 -0.005065672657)
(0.003774383523 -4.22117175e-18 -0.005062207657)
(0.004171919568 1.243091381e-17 -0.005057103043)
(0.004569346453 1.773995885e-17 -0.005050073628)
(0.004966286172 5.661490804e-18 -0.005040857262)
(0.00536231286 5.138212421e-19 -0.005029229645)
(0.005756954108 9.012962648e-20 -0.005015019876)
(0.006149696288 3.438748449e-19 -0.004998126331)
(0.006539993423 4.135265357e-19 -0.004978532575)
(0.006927279125 4.126910061e-19 -0.004956323122)
(0.007310981299 4.091013157e-19 -0.004931698762)
(0.007690539291 4.254864205e-19 -0.004904991118)
(0.008065423057 4.433270427e-19 -0.004876676064)
(0.008435153793 4.3530103e-19 -0.004847385719)
(0.008799325287 4.358526877e-19 -0.004817918663)
(0.009157624508 4.249989586e-19 -0.00478924887)
(0.009509852617 4.203379806e-19 -0.004762531951)
(0.009855942387 4.222004757e-19 -0.004739103804)
(0.0101959677 3.957085399e-19 -0.004720482746)
(0.01053014603 3.875629829e-19 -0.004708364156)
(0.01085883131 3.588551242e-19 -0.004704611847)
(0.01118249595 3.427059768e-19 -0.004711246823)
(0.01150169094 3.366926696e-19 -0.004730431965)
(0.01181697407 3.760206685e-19 -0.004764409152)
(0.01212883807 2.065011006e-19 -0.004815441063)
(0.0124377001 1.514371437e-18 -0.004885763905)
(0.01274322642 -4.658325774e-18 -0.004977192907)
(0.01305200892 -6.036371188e-18 -0.005093874656)
(0.01332469351 -4.21721181e-18 -0.005272943849)
(0.01387614175 -1.420969496e-18 -0.004957513693)
(0.01318062508 3.772865292e-19 -0.008733108111)
(0.005967854942 6.080268243e-19 0.1026508825)
(0.0003794999936 3.511979553e-19 -0.005597262588)
(0.0006504652629 3.44483671e-19 -0.00560140147)
(0.001020574981 -1.493194661e-17 -0.0056031711)
(0.001405683028 -1.108104579e-18 -0.005604523453)
(0.001796216075 5.82134231e-19 -0.005605646945)
(0.002189595427 4.523222342e-19 -0.005606442718)
(0.002584834279 4.031799889e-19 -0.00560669993)
(0.002981438936 9.228781443e-19 -0.005606142023)
(0.003379079736 -1.30544759e-17 -0.005604450759)
(0.003777466637 -4.169294302e-18 -0.005601283812)
(0.004176294435 1.251746881e-17 -0.005596290511)
(0.004575216349 1.773729912e-17 -0.005589127606)
(0.004973831309 5.607365005e-18 -0.005579475847)
(0.00537167951 4.996480679e-19 -0.005567056791)
(0.005768243408 9.824234816e-20 -0.00555165002)
(0.006162952814 3.472921806e-19 -0.005533111108)
(0.00655519368 4.190399469e-19 -0.005511389605)
(0.006944320198 4.149298023e-19 -0.005486546837)
(0.007329669913 4.379431461e-19 -0.005458773196)
(0.007710581519 4.343957507e-19 -0.005428404454)
(0.008086414915 4.354891281e-19 -0.005395936675)
(0.008456572991 4.3552785e-19 -0.005362039238)
(0.008820524416 4.344050098e-19 -0.005327565537)
(0.009177826199 3.898035569e-19 -0.005293561037)
(0.009528145639 4.163453365e-19 -0.005261270402)
(0.009871281545 4.150934025e-19 -0.005232132493)
(0.01020717709 3.800406667e-19 -0.00520777496)
(0.010535926 3.711148577e-19 -0.00519000651)
(0.01085777376 3.536043712e-19 -0.005180800077)
(0.01117310897 3.599903019e-19 -0.005182274735)
(0.01148242318 3.641930557e-19 -0.005196649736)
(0.01178625485 3.715965431e-19 -0.005226177022)
(0.01208515399 2.452249562e-19 -0.005273099043)
(0.01237969147 1.493388299e-18 -0.005339656101)
(0.01266993621 -4.710107507e-18 -0.005426829025)
(0.01296136711 -6.120007915e-18 -0.00554792174)
(0.01321090077 -4.118034822e-18 -0.005667381022)
(0.01371272713 -1.333506525e-18 -0.005764412011)
(0.01290152194 4.378668846e-19 -0.007387516741)
(0.00579139069 5.929438986e-19 0.1112179573)
(0.0003792700929 3.67935673e-19 -0.006133226178)
(0.0006500745609 3.540579528e-19 -0.006137142411)
(0.001020011864 -1.494480118e-17 -0.00613908681)
(0.001405038185 -1.092437208e-18 -0.006140840669)
(0.001795628411 5.847913268e-19 -0.00614252017)
(0.002189242483 4.46493002e-19 -0.006143975982)
(0.002584925479 3.971111221e-19 -0.006144946154)
(0.002982208448 9.055746991e-19 -0.006145099322)
(0.003380778532 -1.309185144e-17 -0.006144058208)
(0.003780353574 -4.121947873e-18 -0.006141417743)
(0.004180626356 1.256070535e-17 -0.006136761947)
(0.004581237429 1.773810348e-17 -0.006129680966)
(0.00498176164 5.526703823e-18 -0.006119789203)
(0.005381702824 4.672571046e-19 -0.00610674433)
(0.005780494421 9.051064242e-20 -0.006090266489)
(0.006177504377 3.388345061e-19 -0.006070158282)
(0.006572043827 4.037142887e-19 -0.006046325068)
(0.006963379406 4.042283157e-19 -0.006018794989)
(0.007350748864 4.125970031e-19 -0.005987738441)
(0.007733379691 4.266624745e-19 -0.005953486375)
(0.008110510374 4.3526845e-19 -0.005916546929)
(0.008481413749 4.15599195e-19 -0.005877619747)
(0.008845421716 4.135436776e-19 -0.005837607395)
(0.009201950708 4.135905346e-19 -0.005797623401)
(0.009550525603 4.003287291e-19 -0.005758998181)
(0.009890803747 3.94658987e-19 -0.005723274901)
(0.01022259462 3.584504823e-19 -0.005692194711)
(0.0105458726 3.638591783e-19 -0.005667688631)
(0.01086078667 3.444775847e-19 -0.005651855087)
(0.0111676535 3.169951701e-19 -0.005646928965)
(0.0114669233 2.97926871e-19 -0.005655207126)
(0.01175914961 3.43875057e-19 -0.005678998566)
(0.01204495645 1.934204494e-19 -0.005720575599)
(0.01232502098 1.542533867e-18 -0.005782227198)
(0.01259961901 -4.878394451e-18 -0.005864300916)
(0.01287329304 -6.14077303e-18 -0.005987275153)
(0.01310393021 -4.120962124e-18 -0.006044319107)
(0.0135768879 -1.216024239e-18 -0.006530804972)
(0.01266148049 4.549599319e-19 -0.005922399276)
(0.005632014527 6.147255482e-19 0.1195591914)
(0.0003789117827 3.646081697e-19 -0.006668774278)
(0.000649468264 3.42311618e-19 -0.006672475726)
(0.001019122823 -1.496095992e-17 -0.006674666415)
(0.001403969445 -1.065411815e-18 -0.006676939094)
(0.001794540714 5.820897775e-19 -0.006679331824)
(0.00218834173 4.438073656e-19 -0.00668163998)
(0.002584454922 3.959803523e-19 -0.006683544981)
(0.00298244068 8.926224323e-19 -0.006684654295)
(0.003382006669 -1.3140064e-17 -0.006684524447)
(0.003782881444 -4.064146977e-18 -0.006682679566)
(0.004184757566 1.263569094e-17 -0.006678629452)
(0.004587263474 1.774412302e-17 -0.006671888129)
(0.004989949209 5.450768904e-18 -0.006661993425)
(0.005392280198 4.421442849e-19 -0.006648528164)
(0.005793637218 9.288394757e-20 -0.006631141872)
(0.00619332111 3.343336073e-19 -0.006609572785)
(0.006590561392 4.013055701e-19 -0.006583670641)
(0.006984528796 4.036265273e-19 -0.006553419203)
(0.007374351486 4.14986276e-19 -0.006518958148)
(0.007759134678 4.2637168e-19 -0.006480603672)
(0.008137983373 4.324430322e-19 -0.006438867166)
(0.008510027665 4.150063763e-19 -0.006394471163)
(0.008874450027 4.10392469e-19 -0.006348361878)
(0.009230514061 4.220932015e-19 -0.006301718064)
(0.009577592019 4.057479357e-19 -0.00625595462)
(0.009915190255 3.889865885e-19 -0.006212719531)
(0.0102429788 3.559751132e-19 -0.006173878016)
(0.01056081362 3.560293265e-19 -0.006141495941)
(0.01086874875 3.391877979e-19 -0.006117816225)
(0.0111670288 3.234474802e-19 -0.006105204126)
(0.01145608147 3.114698928e-19 -0.006106075972)
(0.0117365121 3.428271807e-19 -0.00612284896)
(0.01200904607 2.467969819e-19 -0.006157854477)
(0.01227447476 1.55793046e-18 -0.006213439201)
(0.0125332115 -4.94677531e-18 -0.006289399257)
(0.01278898266 -6.196749712e-18 -0.0064118962)
(0.01300276742 -4.037611346e-18 -0.006408178749)
(0.01344727961 -1.120098597e-18 -0.007266938126)
(0.01243674716 5.049822503e-19 -0.004342320911)
(0.005485300421 5.87439982e-19 0.1276933289)
(0.0003783958251 3.681400073e-19 -0.007203704829)
(0.0006485966019 3.309277005e-19 -0.007207205858)
(0.001017830793 -1.497838308e-17 -0.007209727751)
(0.001402372899 -1.038959686e-18 -0.007212656155)
(0.001792824203 5.791924984e-19 -0.00721594473)
(0.002186742492 4.418790473e-19 -0.007219328222)
(0.002583253847 3.959216853e-19 -0.007222425519)
(0.002981953411 8.787721364e-19 -0.007224775853)
(0.003382573807 -1.319215076e-17 -0.007225861734)
(0.003784857787 -3.998472486e-18 -0.00722512765)
(0.004188500095 1.274401749e-17 -0.007221999368)
(0.00459311812 1.773266745e-17 -0.007215904127)
(0.004998236777 5.368393646e-18 -0.00720629193)
(0.00540328144 4.253600676e-19 -0.007192658637)
(0.005807576857 9.680566882e-20 -0.007174570486)
(0.006210351571 3.38960269e-19 -0.007151688662)
(0.006610746627 4.000144936e-19 -0.007123794476)
(0.007007828259 4.065680842e-19 -0.007090814765)
(0.007400604776 3.93875468e-19 -0.007052846496)
(0.007788047361 3.986063095e-19 -0.007010180056)
(0.008169114504 4.184176892e-19 -0.006963320359)
(0.008542779655 4.150741726e-19 -0.006913004885)
(0.008908061716 4.017381746e-19 -0.006860217986)
(0.009264057597 4.425406858e-19 -0.006806200935)
(0.009609972874 4.147418789e-19 -0.006752452723)
(0.00994515203 3.798059546e-19 -0.006700728271)
(0.01026911685 3.557243442e-19 -0.006653029824)
(0.01058159792 3.282067692e-19 -0.006611574171)
(0.01088254499 3.497432905e-19 -0.006578763434)
(0.01117213706 3.330660391e-19 -0.006557121644)
(0.01145079882 3.433131071e-19 -0.006549235284)
(0.01171919756 3.538987121e-19 -0.006557679173)
(0.01197820384 2.79486401e-19 -0.006584892217)
(0.01222882571 1.513417344e-18 -0.006633297158)
(0.01247179261 -5.005180674e-18 -0.006702212738)
(0.01271025749 -6.268810235e-18 -0.006822173509)
(0.01290941092 -3.95054431e-18 -0.006761643869)
(0.01333191101 -1.060021643e-18 -0.007975071756)
(0.01223204771 6.46089416e-19 -0.002655620175)
(0.005349058734 5.624180808e-19 0.1356351749)
(0.0003776883941 3.708491773e-19 -0.007737771228)
(0.0006474020222 3.315002732e-19 -0.00774109325)
(0.001016046705 -1.499050759e-17 -0.007744045845)
(0.00140012848 -1.009316956e-18 -0.007747788337)
(0.001790330008 5.806419211e-19 -0.007752183365)
(0.002184270408 4.427584387e-19 -0.007756899227)
(0.002581126566 4.002090466e-19 -0.007761485872)
(0.002980534666 8.702515881e-19 -0.007765406697)
(0.003382257593 -1.324438923e-17 -0.00776806152)
(0.003786056453 -3.918919765e-18 -0.007768805571)
(0.004191631239 1.282339755e-17 -0.007766969824)
(0.004598590069 1.774625256e-17 -0.007761882924)
(0.005006432907 5.292983913e-18 -0.007752894557)
(0.005414543654 4.037002515e-19 -0.00773940035)
(0.005822188069 1.140687639e-19 -0.007720869093)
(0.006228517418 3.568990711e-19 -0.007696870636)
(0.006632577247 4.12111618e-19 -0.007667103608)
(0.007033320406 4.084145282e-19 -0.007631423843)
(0.007429624562 4.209624305e-19 -0.007589872155)
(0.007820314258 4.293805857e-19 -0.007542700711)
(0.008204187261 4.31968261e-19 -0.007490397068)
(0.008580045044 4.222113898e-19 -0.007433704973)
(0.008946726984 4.20075912e-19 -0.007373641077)
(0.009303146176 4.159252741e-19 -0.007311505784)
(0.009648324537 4.011564949e-19 -0.007248882059)
(0.009981432041 3.807534275e-19 -0.00718763841)
(0.01030182716 3.629337474e-19 -0.007129922403)
(0.01060909689 3.678169518e-19 -0.007078121353)
(0.01090308348 3.45043098e-19 -0.007034816357)
(0.01118390763 3.289516122e-19 -0.007002731795)
(0.01145199248 3.352752141e-19 -0.006984667812)
(0.01170806921 3.701157846e-19 -0.006983408017)
(0.01195317455 2.367967238e-19 -0.007001581817)
(0.01218862339 1.570127722e-18 -0.007041760884)
(0.01241574202 -5.129569294e-18 -0.007102992128)
(0.01263815149 -6.308949472e-18 -0.007219312024)
(0.01282712877 -3.913287358e-18 -0.007108290278)
(0.0132363767 -9.254950967e-19 -0.008662321321)
(0.01204696674 5.84219359e-19 -0.0008597756554)